<?xml version="1.0" encoding="UTF-8"?>

<!-- generated on 09/05/19 13:16:29 by Eclipse SUMO Version 1.2.0
<configuration xmlns:xsi="http://www.w3.org/2001/XMLSchema-instance" xsi:noNamespaceSchemaLocation="http://sumo.dlr.de/xsd/sumoConfiguration.xsd">

    <input>
        <net-file value="mapNetconvert.net.xml"/>
        <route-files value="C:\Users\darkm\Documents\Mogen\models\flow\routes.rou.xml"/>
        <additional-files value="C:\Users\darkm\Documents\Mogen\vehicles.add.xml"/>
    </input>

    <output>
        <fcd-output value="C:\Users\darkm\Documents\Mogen\models\flow\mapNetconvert.fcd"/>
    </output>

</configuration>
-->

<fcd-export xmlns:xsi="http://www.w3.org/2001/XMLSchema-instance" xsi:noNamespaceSchemaLocation="http://sumo.dlr.de/xsd/fcd_file.xsd">
    <timestep time="0.00"/>
    <timestep time="1.00">
        <vehicle id="12.0" x="171.97" y="1.28" angle="353.29" type="Sport" speed="0.00" pos="1.10" lane="-47360621_0" slope="0.00"/>
    </timestep>
    <timestep time="2.00">
        <vehicle id="12.0" x="171.62" y="4.26" angle="353.29" type="Sport" speed="3.00" pos="4.10" lane="-47360621_0" slope="0.00"/>
        <vehicle id="12.1" x="171.97" y="1.28" angle="353.29" type="Sport" speed="0.00" pos="1.10" lane="-47360621_0" slope="0.00"/>
    </timestep>
    <timestep time="3.00">
        <vehicle id="12.0" x="170.98" y="9.75" angle="353.29" type="Sport" speed="5.53" pos="9.62" lane="-47360621_0" slope="0.00"/>
        <vehicle id="12.1" x="171.96" y="1.37" angle="353.29" type="Sport" speed="0.09" pos="1.19" lane="-47360621_0" slope="0.00"/>
    </timestep>
    <timestep time="4.00">
        <vehicle id="12.0" x="170.10" y="17.24" angle="353.29" type="Sport" speed="7.54" pos="17.17" lane="-47360621_0" slope="0.00"/>
        <vehicle id="12.1" x="171.88" y="2.02" angle="353.29" type="Sport" speed="0.65" pos="1.85" lane="-47360621_0" slope="0.00"/>
    </timestep>
    <timestep time="5.00">
        <vehicle id="12.0" x="169.03" y="26.30" angle="353.29" type="Sport" speed="9.12" pos="26.29" lane="-47360621_0" slope="0.00"/>
        <vehicle id="12.1" x="171.66" y="3.94" angle="353.29" type="Sport" speed="1.93" pos="3.77" lane="-47360621_0" slope="0.00"/>
        <vehicle id="12.2" x="171.97" y="1.28" angle="353.29" type="Sport" speed="0.00" pos="1.10" lane="-47360621_0" slope="0.00"/>
    </timestep>
    <timestep time="6.00">
        <vehicle id="12.0" x="167.75" y="37.18" angle="353.29" type="Sport" speed="10.96" pos="37.24" lane="-47360621_0" slope="0.00"/>
        <vehicle id="12.1" x="171.26" y="7.32" angle="353.29" type="Sport" speed="3.40" pos="7.18" lane="-47360621_0" slope="0.00"/>
        <vehicle id="12.2" x="171.96" y="1.35" angle="353.29" type="Sport" speed="0.06" pos="1.16" lane="-47360621_0" slope="0.00"/>
    </timestep>
    <timestep time="7.00">
        <vehicle id="12.0" x="166.20" y="50.37" angle="353.29" type="Sport" speed="13.28" pos="50.52" lane="-47360621_0" slope="0.00"/>
        <vehicle id="12.1" x="170.81" y="11.13" angle="353.29" type="Sport" speed="3.83" pos="11.01" lane="-47360621_0" slope="0.00"/>
        <vehicle id="12.2" x="171.91" y="1.83" angle="353.29" type="Sport" speed="0.49" pos="1.65" lane="-47360621_0" slope="0.00"/>
    </timestep>
    <timestep time="8.00">
        <vehicle id="12.0" x="164.62" y="63.76" angle="353.29" type="Sport" speed="13.49" pos="64.01" lane="-47360621_0" slope="0.00"/>
        <vehicle id="12.1" x="170.11" y="17.15" angle="353.29" type="Sport" speed="6.06" pos="17.07" lane="-47360621_0" slope="0.00"/>
        <vehicle id="12.2" x="171.83" y="2.52" angle="353.29" type="Sport" speed="0.69" pos="2.35" lane="-47360621_0" slope="0.00"/>
    </timestep>
    <timestep time="9.00">
        <vehicle id="12.0" x="162.79" y="77.84" angle="351.53" type="Sport" speed="14.20" pos="78.22" lane="-47360621_0" slope="0.00"/>
        <vehicle id="12.1" x="169.29" y="24.04" angle="353.29" type="Sport" speed="6.95" pos="24.02" lane="-47360621_0" slope="0.00"/>
        <vehicle id="12.2" x="171.69" y="3.68" angle="353.29" type="Sport" speed="1.17" pos="3.51" lane="-47360621_0" slope="0.00"/>
        <vehicle id="12.3" x="171.97" y="1.28" angle="353.29" type="Sport" speed="0.00" pos="1.10" lane="-47360621_0" slope="0.00"/>
    </timestep>
    <timestep time="10.00">
        <vehicle id="12.0" x="160.74" y="91.63" angle="351.53" type="Sport" speed="13.94" pos="92.16" lane="-47360621_0" slope="0.00"/>
        <vehicle id="12.1" x="168.28" y="32.67" angle="353.29" type="Sport" speed="8.69" pos="32.71" lane="-47360621_0" slope="0.00"/>
        <vehicle id="12.2" x="171.47" y="5.57" angle="353.29" type="Sport" speed="1.90" pos="5.41" lane="-47360621_0" slope="0.00"/>
        <vehicle id="12.3" x="171.97" y="1.33" angle="353.29" type="Sport" speed="0.05" pos="1.15" lane="-47360621_0" slope="0.00"/>
    </timestep>
    <timestep time="11.00">
        <vehicle id="12.0" x="158.78" y="104.78" angle="351.53" type="Sport" speed="13.29" pos="105.45" lane="-47360621_0" slope="0.00"/>
        <vehicle id="12.1" x="167.21" y="41.75" angle="353.29" type="Sport" speed="9.14" pos="41.84" lane="-47360621_0" slope="0.00"/>
        <vehicle id="12.2" x="171.01" y="9.47" angle="353.29" type="Sport" speed="3.93" pos="9.34" lane="-47360621_0" slope="0.00"/>
        <vehicle id="12.3" x="171.93" y="1.62" angle="353.29" type="Sport" speed="0.29" pos="1.44" lane="-47360621_0" slope="0.00"/>
    </timestep>
    <timestep time="12.00">
        <vehicle id="12.0" x="156.65" y="119.10" angle="351.53" type="Sport" speed="14.48" pos="119.93" lane="-47360621_0" slope="0.00"/>
        <vehicle id="12.1" x="166.13" y="50.93" angle="353.29" type="Sport" speed="9.25" pos="51.10" lane="-47360621_0" slope="0.00"/>
        <vehicle id="12.2" x="170.53" y="13.54" angle="353.29" type="Sport" speed="4.10" pos="13.44" lane="-47360621_0" slope="0.00"/>
        <vehicle id="12.3" x="171.84" y="2.41" angle="353.29" type="Sport" speed="0.79" pos="2.23" lane="-47360621_0" slope="0.00"/>
    </timestep>
    <timestep time="13.00">
        <vehicle id="12.0" x="166.49" y="124.55" angle="76.08" type="Sport" speed="13.51" pos="133.44" lane="-47360621_0" slope="0.00"/>
        <vehicle id="12.1" x="164.96" y="60.94" angle="353.29" type="Sport" speed="10.07" pos="61.17" lane="-47360621_0" slope="0.00"/>
        <vehicle id="12.2" x="170.02" y="17.87" angle="353.29" type="Sport" speed="4.36" pos="17.80" lane="-47360621_0" slope="0.00"/>
        <vehicle id="12.3" x="171.76" y="3.08" angle="353.29" type="Sport" speed="0.68" pos="2.91" lane="-47360621_0" slope="0.00"/>
    </timestep>
    <timestep time="14.00">
        <vehicle id="12.0" x="175.81" y="132.82" angle="22.36" type="Sport" speed="13.96" pos="147.41" lane="-47360621_0" slope="0.00"/>
        <vehicle id="12.1" x="163.71" y="71.55" angle="353.29" type="Sport" speed="10.69" pos="71.86" lane="-47360621_0" slope="0.00"/>
        <vehicle id="12.2" x="169.30" y="23.98" angle="353.29" type="Sport" speed="6.15" pos="23.95" lane="-47360621_0" slope="0.00"/>
        <vehicle id="12.3" x="171.62" y="4.24" angle="353.29" type="Sport" speed="1.16" pos="4.08" lane="-47360621_0" slope="0.00"/>
        <vehicle id="12.4" x="171.97" y="1.28" angle="353.29" type="Sport" speed="0.00" pos="1.10" lane="-47360621_0" slope="0.00"/>
    </timestep>
    <timestep time="15.00">
        <vehicle id="12.0" x="180.39" y="145.45" angle="18.22" type="Sport" speed="13.45" pos="160.86" lane="-47360621_0" slope="0.00"/>
        <vehicle id="12.1" x="162.21" y="81.74" angle="351.53" type="Sport" speed="10.30" pos="82.16" lane="-47360621_0" slope="0.00"/>
        <vehicle id="12.2" x="168.63" y="29.67" angle="353.29" type="Sport" speed="5.73" pos="29.68" lane="-47360621_0" slope="0.00"/>
        <vehicle id="12.3" x="171.42" y="5.99" angle="353.29" type="Sport" speed="1.76" pos="5.84" lane="-47360621_0" slope="0.00"/>
        <vehicle id="12.4" x="171.96" y="1.38" angle="353.29" type="Sport" speed="0.10" pos="1.20" lane="-47360621_0" slope="0.00"/>
    </timestep>
    <timestep time="16.00">
        <vehicle id="12.0" x="184.92" y="159.22" angle="18.22" type="Sport" speed="14.50" pos="175.35" lane="-47360621_0" slope="0.00"/>
        <vehicle id="12.1" x="160.65" y="92.23" angle="351.53" type="Sport" speed="10.61" pos="92.76" lane="-47360621_0" slope="0.00"/>
        <vehicle id="12.2" x="167.83" y="36.50" angle="353.29" type="Sport" speed="6.88" pos="36.56" lane="-47360621_0" slope="0.00"/>
        <vehicle id="12.3" x="171.17" y="8.08" angle="353.29" type="Sport" speed="2.11" pos="7.94" lane="-47360621_0" slope="0.00"/>
        <vehicle id="12.4" x="171.92" y="1.72" angle="353.29" type="Sport" speed="0.35" pos="1.54" lane="-47360621_0" slope="0.00"/>
    </timestep>
    <timestep time="17.00">
        <vehicle id="12.0" x="188.93" y="171.40" angle="18.22" type="Sport" speed="12.82" pos="188.17" lane="-47360621_0" slope="0.00"/>
        <vehicle id="12.1" x="159.00" y="103.35" angle="351.53" type="Sport" speed="11.24" pos="104.00" lane="-47360621_0" slope="0.00"/>
        <vehicle id="12.2" x="166.93" y="44.13" angle="353.29" type="Sport" speed="7.69" pos="44.25" lane="-47360621_0" slope="0.00"/>
        <vehicle id="12.3" x="170.79" y="11.31" angle="353.29" type="Sport" speed="3.26" pos="11.20" lane="-47360621_0" slope="0.00"/>
        <vehicle id="12.4" x="171.87" y="2.18" angle="353.29" type="Sport" speed="0.45" pos="2.00" lane="-47360621_0" slope="0.00"/>
    </timestep>
    <timestep time="18.00">
        <vehicle id="12.0" x="191.37" y="178.83" angle="18.22" type="Sport" speed="7.82" pos="196.00" lane="-47360621_0" slope="0.00"/>
        <vehicle id="12.1" x="157.38" y="114.20" angle="351.53" type="Sport" speed="10.97" pos="114.98" lane="-47360621_0" slope="0.00"/>
        <vehicle id="12.2" x="165.99" y="52.15" angle="353.29" type="Sport" speed="8.07" pos="52.32" lane="-47360621_0" slope="0.00"/>
        <vehicle id="12.3" x="170.38" y="14.78" angle="353.29" type="Sport" speed="3.49" pos="14.69" lane="-47360621_0" slope="0.00"/>
        <vehicle id="12.4" x="171.77" y="2.96" angle="353.29" type="Sport" speed="0.79" pos="2.79" lane="-47360621_0" slope="0.00"/>
    </timestep>
    <timestep time="19.00">
        <vehicle id="12.0" x="192.92" y="183.52" angle="18.22" type="Sport" speed="4.94" pos="200.94" lane="-47360621_0" slope="0.00"/>
        <vehicle id="12.1" x="158.61" y="122.59" angle="76.08" type="Sport" speed="10.34" pos="125.32" lane="-47360621_0" slope="0.00"/>
        <vehicle id="12.2" x="165.02" y="60.43" angle="353.29" type="Sport" speed="8.34" pos="60.66" lane="-47360621_0" slope="0.00"/>
        <vehicle id="12.3" x="169.77" y="19.98" angle="353.29" type="Sport" speed="5.23" pos="19.92" lane="-47360621_0" slope="0.00"/>
        <vehicle id="12.4" x="171.68" y="3.79" angle="353.29" type="Sport" speed="0.84" pos="3.63" lane="-47360621_0" slope="0.00"/>
        <vehicle id="12.5" x="171.97" y="1.28" angle="353.29" type="Sport" speed="0.00" pos="1.10" lane="-47360621_0" slope="0.00"/>
    </timestep>
    <timestep time="20.00">
        <vehicle id="12.0" x="195.10" y="190.34" angle="17.72" type="Sport" speed="7.16" pos="6.90" lane=":603642830_9_0" slope="0.00"/>
        <vehicle id="12.1" x="167.86" y="124.89" angle="76.08" type="Sport" speed="9.53" pos="134.85" lane="-47360621_0" slope="0.00"/>
        <vehicle id="12.2" x="164.08" y="68.42" angle="353.29" type="Sport" speed="8.05" pos="68.70" lane="-47360621_0" slope="0.00"/>
        <vehicle id="12.3" x="169.17" y="25.07" angle="353.29" type="Sport" speed="5.13" pos="25.05" lane="-47360621_0" slope="0.00"/>
        <vehicle id="12.4" x="171.53" y="5.00" angle="353.29" type="Sport" speed="1.22" pos="4.85" lane="-47360621_0" slope="0.00"/>
        <vehicle id="12.5" x="171.96" y="1.36" angle="353.29" type="Sport" speed="0.07" pos="1.17" lane="-47360621_0" slope="0.00"/>
    </timestep>
    <timestep time="21.00">
        <vehicle id="12.0" x="198.04" y="199.61" angle="17.20" type="Sport" speed="9.71" pos="2.10" lane="47425124#0_0" slope="0.00"/>
        <vehicle id="12.1" x="175.55" y="132.19" angle="22.36" type="Sport" speed="11.88" pos="146.73" lane="-47360621_0" slope="0.00"/>
        <vehicle id="12.2" x="163.02" y="76.32" angle="351.53" type="Sport" speed="7.97" pos="76.67" lane="-47360621_0" slope="0.00"/>
        <vehicle id="12.3" x="168.61" y="29.90" angle="353.29" type="Sport" speed="4.86" pos="29.91" lane="-47360621_0" slope="0.00"/>
        <vehicle id="12.4" x="171.35" y="6.53" angle="353.29" type="Sport" speed="1.54" pos="6.39" lane="-47360621_0" slope="0.00"/>
        <vehicle id="12.5" x="171.95" y="1.50" angle="353.29" type="Sport" speed="0.14" pos="1.31" lane="-47360621_0" slope="0.00"/>
    </timestep>
    <timestep time="22.00">
        <vehicle id="12.0" x="201.59" y="211.08" angle="17.20" type="Sport" speed="12.01" pos="14.11" lane="47425124#0_0" slope="0.00"/>
        <vehicle id="12.1" x="179.72" y="143.44" angle="18.22" type="Sport" speed="12.01" pos="158.74" lane="-47360621_0" slope="0.00"/>
        <vehicle id="12.2" x="161.58" y="85.99" angle="351.53" type="Sport" speed="9.78" pos="86.45" lane="-47360621_0" slope="0.00"/>
        <vehicle id="12.3" x="167.95" y="35.48" angle="353.29" type="Sport" speed="5.62" pos="35.53" lane="-47360621_0" slope="0.00"/>
        <vehicle id="12.4" x="171.02" y="9.41" angle="353.29" type="Sport" speed="2.90" pos="9.28" lane="-47360621_0" slope="0.00"/>
        <vehicle id="12.5" x="171.91" y="1.83" angle="353.29" type="Sport" speed="0.33" pos="1.65" lane="-47360621_0" slope="0.00"/>
    </timestep>
    <timestep time="23.00">
        <vehicle id="12.0" x="205.55" y="223.86" angle="17.20" type="Sport" speed="13.38" pos="27.49" lane="47425124#0_0" slope="0.00"/>
        <vehicle id="12.1" x="183.54" y="155.04" angle="18.22" type="Sport" speed="12.21" pos="170.95" lane="-47360621_0" slope="0.00"/>
        <vehicle id="12.2" x="160.15" y="95.60" angle="351.53" type="Sport" speed="9.72" pos="96.17" lane="-47360621_0" slope="0.00"/>
        <vehicle id="12.3" x="167.17" y="42.13" angle="353.29" type="Sport" speed="6.70" pos="42.23" lane="-47360621_0" slope="0.00"/>
        <vehicle id="12.4" x="170.70" y="12.09" angle="353.29" type="Sport" speed="2.70" pos="11.98" lane="-47360621_0" slope="0.00"/>
        <vehicle id="12.5" x="171.83" y="2.47" angle="353.29" type="Sport" speed="0.65" pos="2.30" lane="-47360621_0" slope="0.00"/>
    </timestep>
    <timestep time="24.00">
        <vehicle id="12.0" x="209.85" y="237.74" angle="17.20" type="Sport" speed="14.53" pos="42.02" lane="47425124#0_0" slope="0.00"/>
        <vehicle id="12.1" x="187.32" y="166.50" angle="18.22" type="Sport" speed="12.07" pos="183.02" lane="-47360621_0" slope="0.00"/>
        <vehicle id="12.2" x="158.76" y="104.93" angle="351.53" type="Sport" speed="9.43" pos="105.60" lane="-47360621_0" slope="0.00"/>
        <vehicle id="12.3" x="166.34" y="49.21" angle="353.29" type="Sport" speed="7.13" pos="49.36" lane="-47360621_0" slope="0.00"/>
        <vehicle id="12.4" x="170.26" y="15.81" angle="353.29" type="Sport" speed="3.75" pos="15.73" lane="-47360621_0" slope="0.00"/>
        <vehicle id="12.5" x="171.77" y="3.03" angle="353.29" type="Sport" speed="0.56" pos="2.86" lane="-47360621_0" slope="0.00"/>
    </timestep>
    <timestep time="25.00">
        <vehicle id="12.0" x="214.00" y="251.15" angle="17.20" type="Sport" speed="14.04" pos="56.05" lane="47425124#0_0" slope="0.00"/>
        <vehicle id="12.1" x="190.37" y="175.79" angle="18.22" type="Sport" speed="9.78" pos="192.80" lane="-47360621_0" slope="0.00"/>
        <vehicle id="12.2" x="157.25" y="115.06" angle="351.53" type="Sport" speed="10.25" pos="115.85" lane="-47360621_0" slope="0.00"/>
        <vehicle id="12.3" x="165.45" y="56.76" angle="353.29" type="Sport" speed="7.60" pos="56.96" lane="-47360621_0" slope="0.00"/>
        <vehicle id="12.4" x="169.79" y="19.85" angle="353.29" type="Sport" speed="4.07" pos="19.80" lane="-47360621_0" slope="0.00"/>
        <vehicle id="12.5" x="171.65" y="4.05" angle="353.29" type="Sport" speed="1.03" pos="3.89" lane="-47360621_0" slope="0.00"/>
        <vehicle id="12.6" x="171.97" y="1.28" angle="353.29" type="Sport" speed="0.00" pos="1.10" lane="-47360621_0" slope="0.00"/>
    </timestep>
    <timestep time="26.00">
        <vehicle id="12.0" x="218.25" y="264.90" angle="17.20" type="Sport" speed="14.39" pos="70.44" lane="47425124#0_0" slope="0.00"/>
        <vehicle id="12.1" x="192.01" y="180.76" angle="18.22" type="Sport" speed="5.23" pos="198.03" lane="-47360621_0" slope="0.00"/>
        <vehicle id="12.2" x="158.57" y="122.58" angle="76.08" type="Sport" speed="9.44" pos="125.29" lane="-47360621_0" slope="0.00"/>
        <vehicle id="12.3" x="164.53" y="64.58" angle="353.29" type="Sport" speed="7.87" pos="64.83" lane="-47360621_0" slope="0.00"/>
        <vehicle id="12.4" x="169.19" y="24.97" angle="353.29" type="Sport" speed="5.15" pos="24.95" lane="-47360621_0" slope="0.00"/>
        <vehicle id="12.5" x="171.44" y="5.84" angle="353.29" type="Sport" speed="1.81" pos="5.69" lane="-47360621_0" slope="0.00"/>
        <vehicle id="12.6" x="171.96" y="1.37" angle="353.29" type="Sport" speed="0.09" pos="1.19" lane="-47360621_0" slope="0.00"/>
    </timestep>
    <timestep time="27.00">
        <vehicle id="12.0" x="222.29" y="277.95" angle="17.18" type="Sport" speed="13.67" pos="10.91" lane=":603045531_3_0" slope="0.00"/>
        <vehicle id="12.1" x="194.39" y="188.12" angle="17.72" type="Sport" speed="7.74" pos="4.57" lane=":603642830_9_0" slope="0.00"/>
        <vehicle id="12.2" x="167.65" y="124.83" angle="76.08" type="Sport" speed="9.35" pos="134.64" lane="-47360621_0" slope="0.00"/>
        <vehicle id="12.3" x="163.69" y="71.68" angle="353.29" type="Sport" speed="7.15" pos="71.99" lane="-47360621_0" slope="0.00"/>
        <vehicle id="12.4" x="168.62" y="29.76" angle="353.29" type="Sport" speed="4.83" pos="29.78" lane="-47360621_0" slope="0.00"/>
        <vehicle id="12.5" x="171.24" y="7.49" angle="353.29" type="Sport" speed="1.66" pos="7.35" lane="-47360621_0" slope="0.00"/>
        <vehicle id="12.6" x="171.92" y="1.68" angle="353.29" type="Sport" speed="0.31" pos="1.50" lane="-47360621_0" slope="0.00"/>
    </timestep>
    <timestep time="28.00">
        <vehicle id="12.0" x="226.18" y="290.61" angle="17.09" type="Sport" speed="13.24" pos="13.07" lane="47425124#1_0" slope="0.00"/>
        <vehicle id="12.1" x="197.63" y="198.27" angle="17.36" type="Sport" speed="10.64" pos="0.70" lane="47425124#0_0" slope="0.00"/>
        <vehicle id="12.2" x="175.22" y="131.37" angle="22.36" type="Sport" speed="11.21" pos="145.85" lane="-47360621_0" slope="0.00"/>
        <vehicle id="12.3" x="162.43" y="80.31" angle="351.53" type="Sport" speed="8.72" pos="80.71" lane="-47360621_0" slope="0.00"/>
        <vehicle id="12.4" x="167.94" y="35.57" angle="353.29" type="Sport" speed="5.84" pos="35.62" lane="-47360621_0" slope="0.00"/>
        <vehicle id="12.5" x="170.96" y="9.91" angle="353.29" type="Sport" speed="2.44" pos="9.79" lane="-47360621_0" slope="0.00"/>
        <vehicle id="12.6" x="171.88" y="2.10" angle="353.29" type="Sport" speed="0.42" pos="1.92" lane="-47360621_0" slope="0.00"/>
    </timestep>
    <timestep time="29.00">
        <vehicle id="12.0" x="230.07" y="303.25" angle="17.09" type="Sport" speed="13.23" pos="26.30" lane="47425124#1_0" slope="0.00"/>
        <vehicle id="12.1" x="201.38" y="210.38" angle="17.20" type="Sport" speed="12.68" pos="13.38" lane="47425124#0_0" slope="0.00"/>
        <vehicle id="12.2" x="179.79" y="143.65" angle="18.22" type="Sport" speed="13.11" pos="158.96" lane="-47360621_0" slope="0.00"/>
        <vehicle id="12.3" x="161.08" y="89.38" angle="351.53" type="Sport" speed="9.17" pos="89.88" lane="-47360621_0" slope="0.00"/>
        <vehicle id="12.4" x="167.25" y="41.40" angle="353.29" type="Sport" speed="5.88" pos="41.50" lane="-47360621_0" slope="0.00"/>
        <vehicle id="12.5" x="170.60" y="12.91" angle="353.29" type="Sport" speed="3.02" pos="12.81" lane="-47360621_0" slope="0.00"/>
        <vehicle id="12.6" x="171.79" y="2.84" angle="353.29" type="Sport" speed="0.75" pos="2.66" lane="-47360621_0" slope="0.00"/>
    </timestep>
    <timestep time="30.00">
        <vehicle id="12.0" x="234.07" y="316.29" angle="17.05" type="Sport" speed="13.64" pos="7.37" lane=":5749982904_3_0" slope="0.00"/>
        <vehicle id="12.1" x="205.00" y="222.08" angle="17.20" type="Sport" speed="12.24" pos="25.62" lane="47425124#0_0" slope="0.00"/>
        <vehicle id="12.2" x="184.03" y="156.52" angle="18.22" type="Sport" speed="13.55" pos="172.51" lane="-47360621_0" slope="0.00"/>
        <vehicle id="12.3" x="159.62" y="99.13" angle="351.53" type="Sport" speed="9.86" pos="99.74" lane="-47360621_0" slope="0.00"/>
        <vehicle id="12.4" x="166.47" y="48.05" angle="353.29" type="Sport" speed="6.70" pos="48.20" lane="-47360621_0" slope="0.00"/>
        <vehicle id="12.5" x="170.16" y="16.72" angle="353.29" type="Sport" speed="3.84" pos="16.65" lane="-47360621_0" slope="0.00"/>
        <vehicle id="12.6" x="171.66" y="3.97" angle="353.29" type="Sport" speed="1.14" pos="3.80" lane="-47360621_0" slope="0.00"/>
        <vehicle id="12.7" x="171.97" y="1.28" angle="353.29" type="Sport" speed="0.00" pos="1.10" lane="-47360621_0" slope="0.00"/>
    </timestep>
    <timestep time="31.00">
        <vehicle id="12.0" x="237.98" y="329.02" angle="17.10" type="Sport" speed="13.31" pos="9.20" lane="47425124#2_0" slope="0.00"/>
        <vehicle id="12.1" x="208.51" y="233.41" angle="17.20" type="Sport" speed="11.87" pos="37.48" lane="47425124#0_0" slope="0.00"/>
        <vehicle id="12.2" x="188.30" y="169.51" angle="18.22" type="Sport" speed="13.67" pos="186.18" lane="-47360621_0" slope="0.00"/>
        <vehicle id="12.3" x="158.06" y="109.66" angle="351.53" type="Sport" speed="10.64" pos="110.38" lane="-47360621_0" slope="0.00"/>
        <vehicle id="12.4" x="165.73" y="54.32" angle="353.29" type="Sport" speed="6.31" pos="54.51" lane="-47360621_0" slope="0.00"/>
        <vehicle id="12.5" x="169.66" y="20.91" angle="353.29" type="Sport" speed="4.22" pos="20.87" lane="-47360621_0" slope="0.00"/>
        <vehicle id="12.6" x="171.52" y="5.10" angle="353.29" type="Sport" speed="1.14" pos="4.94" lane="-47360621_0" slope="0.00"/>
        <vehicle id="12.7" x="171.97" y="1.33" angle="353.29" type="Sport" speed="0.05" pos="1.15" lane="-47360621_0" slope="0.00"/>
    </timestep>
    <timestep time="32.00">
        <vehicle id="12.0" x="241.98" y="342.02" angle="17.10" type="Sport" speed="13.60" pos="22.80" lane="47425124#2_0" slope="0.00"/>
        <vehicle id="12.1" x="212.21" y="245.39" angle="17.20" type="Sport" speed="12.54" pos="50.02" lane="47425124#0_0" slope="0.00"/>
        <vehicle id="12.2" x="191.13" y="178.08" angle="18.22" type="Sport" speed="9.03" pos="195.21" lane="-47360621_0" slope="0.00"/>
        <vehicle id="12.3" x="156.57" y="119.68" angle="351.53" type="Sport" speed="10.13" pos="120.51" lane="-47360621_0" slope="0.00"/>
        <vehicle id="12.4" x="164.81" y="62.18" angle="353.29" type="Sport" speed="7.91" pos="62.42" lane="-47360621_0" slope="0.00"/>
        <vehicle id="12.5" x="169.24" y="24.50" angle="353.29" type="Sport" speed="3.61" pos="24.48" lane="-47360621_0" slope="0.00"/>
        <vehicle id="12.6" x="171.39" y="6.26" angle="353.29" type="Sport" speed="1.17" pos="6.11" lane="-47360621_0" slope="0.00"/>
        <vehicle id="12.7" x="171.94" y="1.55" angle="353.29" type="Sport" speed="0.22" pos="1.37" lane="-47360621_0" slope="0.00"/>
    </timestep>
    <timestep time="33.00">
        <vehicle id="12.0" x="245.98" y="355.03" angle="17.10" type="Sport" speed="13.61" pos="36.41" lane="47425124#2_0" slope="0.00"/>
        <vehicle id="12.1" x="215.97" y="257.51" angle="17.20" type="Sport" speed="12.69" pos="62.72" lane="47425124#0_0" slope="0.00"/>
        <vehicle id="12.2" x="192.59" y="182.53" angle="18.22" type="Sport" speed="4.69" pos="199.90" lane="-47360621_0" slope="0.00"/>
        <vehicle id="12.3" x="162.96" y="123.67" angle="76.08" type="Sport" speed="9.29" pos="129.80" lane="-47360621_0" slope="0.00"/>
        <vehicle id="12.4" x="163.86" y="70.26" angle="353.29" type="Sport" speed="8.14" pos="70.56" lane="-47360621_0" slope="0.00"/>
        <vehicle id="12.5" x="168.66" y="29.43" angle="353.29" type="Sport" speed="4.96" pos="29.44" lane="-47360621_0" slope="0.00"/>
        <vehicle id="12.6" x="171.16" y="8.17" angle="353.29" type="Sport" speed="1.92" pos="8.03" lane="-47360621_0" slope="0.00"/>
        <vehicle id="12.7" x="171.90" y="1.91" angle="353.29" type="Sport" speed="0.36" pos="1.73" lane="-47360621_0" slope="0.00"/>
    </timestep>
    <timestep time="34.00">
        <vehicle id="12.0" x="249.24" y="365.62" angle="17.12" type="Sport" speed="11.08" pos="47.50" lane="47425124#2_0" slope="0.00"/>
        <vehicle id="12.1" x="219.76" y="269.77" angle="17.18" type="Sport" speed="12.83" pos="2.34" lane=":603045531_3_0" slope="0.00"/>
        <vehicle id="12.2" x="194.75" y="189.24" angle="17.72" type="Sport" speed="7.04" pos="5.74" lane=":603642830_9_0" slope="0.00"/>
        <vehicle id="12.3" x="170.68" y="125.58" angle="76.08" type="Sport" speed="7.96" pos="137.76" lane="-47360621_0" slope="0.00"/>
        <vehicle id="12.4" x="162.75" y="78.13" angle="351.53" type="Sport" speed="7.94" pos="78.50" lane="-47360621_0" slope="0.00"/>
        <vehicle id="12.5" x="168.11" y="34.15" angle="353.29" type="Sport" speed="4.76" pos="34.20" lane="-47360621_0" slope="0.00"/>
        <vehicle id="12.6" x="170.88" y="10.56" angle="353.29" type="Sport" speed="2.41" pos="10.44" lane="-47360621_0" slope="0.00"/>
        <vehicle id="12.7" x="171.84" y="2.37" angle="353.29" type="Sport" speed="0.47" pos="2.20" lane="-47360621_0" slope="0.00"/>
    </timestep>
    <timestep time="35.00">
        <vehicle id="12.0" x="251.20" y="371.96" angle="17.12" type="Sport" speed="6.63" pos="54.13" lane="47425124#2_0" slope="0.00"/>
        <vehicle id="12.1" x="223.36" y="281.43" angle="17.09" type="Sport" speed="12.20" pos="3.46" lane="47425124#1_0" slope="0.00"/>
        <vehicle id="12.2" x="197.71" y="198.53" angle="17.22" type="Sport" speed="9.74" pos="0.97" lane="47425124#0_0" slope="0.00"/>
        <vehicle id="12.3" x="176.16" y="133.66" angle="22.36" type="Sport" speed="10.56" pos="148.32" lane="-47360621_0" slope="0.00"/>
        <vehicle id="12.4" x="161.58" y="85.96" angle="351.53" type="Sport" speed="7.92" pos="86.42" lane="-47360621_0" slope="0.00"/>
        <vehicle id="12.5" x="167.39" y="40.24" angle="353.29" type="Sport" speed="6.14" pos="40.33" lane="-47360621_0" slope="0.00"/>
        <vehicle id="12.6" x="170.53" y="13.58" angle="353.29" type="Sport" speed="3.04" pos="13.48" lane="-47360621_0" slope="0.00"/>
        <vehicle id="12.7" x="171.76" y="3.06" angle="353.29" type="Sport" speed="0.69" pos="2.89" lane="-47360621_0" slope="0.00"/>
    </timestep>
    <timestep time="36.00">
        <vehicle id="12.0" x="254.93" y="378.62" angle="53.46" type="Sport" speed="7.88" pos="4.23" lane=":603045533_0_0" slope="0.00"/>
        <vehicle id="12.1" x="226.71" y="292.35" angle="17.09" type="Sport" speed="11.42" pos="14.88" lane="47425124#1_0" slope="0.00"/>
        <vehicle id="12.2" x="200.88" y="208.78" angle="17.20" type="Sport" speed="10.73" pos="11.70" lane="47425124#0_0" slope="0.00"/>
        <vehicle id="12.3" x="180.45" y="145.65" angle="18.22" type="Sport" speed="12.75" pos="161.06" lane="-47360621_0" slope="0.00"/>
        <vehicle id="12.4" x="160.31" y="94.55" angle="351.53" type="Sport" speed="8.69" pos="95.11" lane="-47360621_0" slope="0.00"/>
        <vehicle id="12.5" x="166.77" y="45.49" angle="353.29" type="Sport" speed="5.29" pos="45.62" lane="-47360621_0" slope="0.00"/>
        <vehicle id="12.6" x="170.11" y="17.08" angle="353.29" type="Sport" speed="3.53" pos="17.01" lane="-47360621_0" slope="0.00"/>
        <vehicle id="12.7" x="171.67" y="3.89" angle="353.29" type="Sport" speed="0.83" pos="3.72" lane="-47360621_0" slope="0.00"/>
        <vehicle id="12.8" x="171.97" y="1.28" angle="353.29" type="Sport" speed="0.00" pos="1.10" lane="-47360621_0" slope="0.00"/>
    </timestep>
    <timestep time="37.00">
        <vehicle id="12.0" x="262.85" y="380.99" angle="79.68" type="Sport" speed="8.32" pos="2.24" lane=":603045559_1_0" slope="0.00"/>
        <vehicle id="12.1" x="230.31" y="304.04" angle="17.09" type="Sport" speed="12.23" pos="27.12" lane="47425124#1_0" slope="0.00"/>
        <vehicle id="12.2" x="204.34" y="219.96" angle="17.20" type="Sport" speed="11.71" pos="23.41" lane="47425124#0_0" slope="0.00"/>
        <vehicle id="12.3" x="184.93" y="159.27" angle="18.22" type="Sport" speed="14.34" pos="175.40" lane="-47360621_0" slope="0.00"/>
        <vehicle id="12.4" x="158.98" y="103.49" angle="351.53" type="Sport" speed="9.03" pos="104.15" lane="-47360621_0" slope="0.00"/>
        <vehicle id="12.5" x="166.05" y="51.64" angle="353.29" type="Sport" speed="6.19" pos="51.81" lane="-47360621_0" slope="0.00"/>
        <vehicle id="12.6" x="169.67" y="20.83" angle="353.29" type="Sport" speed="3.77" pos="20.78" lane="-47360621_0" slope="0.00"/>
        <vehicle id="12.7" x="171.50" y="5.31" angle="353.29" type="Sport" speed="1.44" pos="5.16" lane="-47360621_0" slope="0.00"/>
        <vehicle id="12.8" x="171.97" y="1.33" angle="353.29" type="Sport" speed="0.05" pos="1.15" lane="-47360621_0" slope="0.00"/>
    </timestep>
    <timestep time="38.00">