<?xml version="1.0" encoding="UTF-8"?>

<!-- generated on 07/27/20 02:47:58 by Eclipse SUMO Version 1.2.0
<configuration xmlns:xsi="http://www.w3.org/2001/XMLSchema-instance" xsi:noNamespaceSchemaLocation="http://sumo.dlr.de/xsd/sumoConfiguration.xsd">

    <input>
        <net-file value="mapNetconvert.net.xml"/>
        <route-files value="C:\Users\darkm\Documents\proyectos\Mogen\models\flow\routes.rou.xml"/>
        <additional-files value="C:\Users\darkm\Documents\proyectos\Mogen\vehicles.add.xml"/>
    </input>

    <output>
        <fcd-output value="C:\Users\darkm\Documents\proyectos\Mogen\models\flow\mapNetconvert.fcd"/>
    </output>

</configuration>
-->

<fcd-export xmlns:xsi="http://www.w3.org/2001/XMLSchema-instance" xsi:noNamespaceSchemaLocation="http://sumo.dlr.de/xsd/fcd_file.xsd">
    <timestep time="0.00"/>
    <timestep time="1.00">
        <vehicle id="23.0" x="126.80" y="160.25" angle="59.78" type="Sport" speed="0.00" pos="1.10" lane="24527732#0_0" slope="0.00"/>
        <vehicle id="32.0" x="61.26" y="239.97" angle="152.49" type="Sport" speed="0.00" pos="1.10" lane="148754587#0_0" slope="0.00"/>
    </timestep>
    <timestep time="2.00">
        <vehicle id="23.0" x="129.30" y="161.71" angle="59.78" type="Sport" speed="2.89" pos="3.99" lane="24527732#0_0" slope="0.00"/>
        <vehicle id="23.1" x="126.80" y="160.25" angle="59.78" type="Sport" speed="0.00" pos="1.10" lane="24527732#0_0" slope="0.00"/>
        <vehicle id="32.0" x="65.16" y="239.42" angle="152.49" type="Sport" speed="2.29" pos="3.39" lane="148754587#0_1" slope="0.00"/>
        <vehicle id="32.1" x="61.26" y="239.97" angle="152.49" type="Sport" speed="0.00" pos="1.10" lane="148754587#0_0" slope="0.00"/>
    </timestep>
    <timestep time="3.00">
        <vehicle id="23.0" x="133.91" y="164.40" angle="59.78" type="Sport" speed="5.34" pos="9.33" lane="24527732#0_0" slope="0.00"/>
        <vehicle id="23.1" x="126.86" y="160.29" angle="59.78" type="Sport" speed="0.07" pos="1.17" lane="24527732#0_0" slope="0.00"/>
        <vehicle id="32.0" x="69.78" y="237.46" angle="152.51" type="Sport" speed="3.87" pos="7.26" lane="148754587#0_2" slope="0.00"/>
        <vehicle id="32.1" x="65.28" y="239.19" angle="152.49" type="Sport" speed="2.55" pos="3.65" lane="148754587#0_1" slope="0.00"/>
        <vehicle id="32.2" x="61.26" y="239.97" angle="152.49" type="Sport" speed="0.00" pos="1.10" lane="148754587#0_0" slope="0.00"/>
    </timestep>
    <timestep time="4.00">
        <vehicle id="23.0" x="140.15" y="168.03" angle="59.78" type="Sport" speed="7.21" pos="16.54" lane="24527732#0_0" slope="0.00"/>
        <vehicle id="23.1" x="127.28" y="160.53" angle="59.78" type="Sport" speed="0.49" pos="1.65" lane="24527732#0_0" slope="0.00"/>
        <vehicle id="32.0" x="75.76" y="232.90" angle="152.51" type="Sport" speed="6.82" pos="14.08" lane="148754587#0_3" slope="0.00"/>
        <vehicle id="32.1" x="70.00" y="237.05" angle="152.51" type="Sport" speed="4.08" pos="7.73" lane="148754587#0_2" slope="0.00"/>
        <vehicle id="32.2" x="64.81" y="240.09" angle="152.49" type="Sport" speed="1.54" pos="2.64" lane="148754587#0_1" slope="0.00"/>
        <vehicle id="32.3" x="61.26" y="239.97" angle="152.49" type="Sport" speed="0.00" pos="1.10" lane="148754587#0_0" slope="0.00"/>
    </timestep>
    <timestep time="5.00">
        <vehicle id="23.0" x="148.48" y="172.88" angle="59.78" type="Sport" speed="9.64" pos="26.18" lane="24527732#0_0" slope="0.00"/>
        <vehicle id="23.1" x="128.81" y="161.42" angle="59.78" type="Sport" speed="1.77" pos="3.42" lane="24527732#0_0" slope="0.00"/>
        <vehicle id="23.2" x="126.80" y="160.25" angle="59.78" type="Sport" speed="0.00" pos="1.10" lane="24527732#0_0" slope="0.00"/>
        <vehicle id="32.0" x="82.79" y="226.59" angle="150.97" type="Sport" speed="8.89" pos="22.97" lane="148754587#0_4" slope="0.00"/>
        <vehicle id="32.1" x="76.06" y="232.34" angle="152.51" type="Sport" speed="6.99" pos="14.72" lane="148754587#0_3" slope="0.00"/>
        <vehicle id="32.2" x="69.12" y="238.73" angle="152.51" type="Sport" speed="3.20" pos="5.83" lane="148754587#0_2" slope="0.00"/>
        <vehicle id="32.3" x="65.06" y="239.60" angle="152.49" type="Sport" speed="2.09" pos="3.19" lane="148754587#0_1" slope="0.00"/>
        <vehicle id="32.4" x="61.26" y="239.97" angle="152.49" type="Sport" speed="0.00" pos="1.10" lane="148754587#0_0" slope="0.00"/>
    </timestep>
    <timestep time="6.00">
        <vehicle id="23.0" x="158.15" y="178.51" angle="59.78" type="Sport" speed="11.19" pos="37.37" lane="24527732#0_0" slope="0.00"/>
        <vehicle id="23.1" x="131.10" y="162.76" angle="59.78" type="Sport" speed="2.65" pos="6.08" lane="24527732#0_0" slope="0.00"/>
        <vehicle id="23.2" x="126.83" y="160.27" angle="59.78" type="Sport" speed="0.04" pos="1.14" lane="24527732#0_0" slope="0.00"/>
        <vehicle id="32.0" x="87.83" y="217.50" angle="150.97" type="Sport" speed="10.41" pos="33.38" lane="148754587#0_4" slope="0.00"/>
        <vehicle id="32.1" x="80.53" y="224.06" angle="150.96" type="Sport" speed="9.42" pos="24.14" lane="148754587#0_3" slope="0.00"/>
        <vehicle id="32.2" x="71.66" y="233.85" angle="152.51" type="Sport" speed="5.50" pos="11.33" lane="148754587#0_2" slope="0.00"/>
        <vehicle id="32.3" x="67.39" y="235.14" angle="152.49" type="Sport" speed="5.02" pos="8.21" lane="148754587#0_1" slope="0.00"/>
        <vehicle id="32.4" x="62.03" y="238.49" angle="152.49" type="Sport" speed="1.66" pos="2.76" lane="148754587#0_0" slope="0.00"/>
    </timestep>
    <timestep time="7.00">
        <vehicle id="23.0" x="169.13" y="184.91" angle="59.78" type="Sport" speed="12.71" pos="50.08" lane="24527732#0_0" slope="0.00"/>
        <vehicle id="23.1" x="134.55" y="164.77" angle="59.78" type="Sport" speed="3.99" pos="10.07" lane="24527732#0_0" slope="0.00"/>
        <vehicle id="23.2" x="127.04" y="160.39" angle="59.78" type="Sport" speed="0.23" pos="1.37" lane="24527732#0_0" slope="0.00"/>
        <vehicle id="32.0" x="94.12" y="206.17" angle="150.97" type="Sport" speed="12.99" pos="46.37" lane="148754587#0_4" slope="0.00"/>
        <vehicle id="32.1" x="84.16" y="217.53" angle="150.96" type="Sport" speed="7.48" pos="31.62" lane="148754587#0_3" slope="0.00"/>
        <vehicle id="32.2" x="73.30" y="230.70" angle="152.51" type="Sport" speed="3.55" pos="14.88" lane="148754587#0_2" slope="0.00"/>
        <vehicle id="32.3" x="68.81" y="232.40" angle="152.49" type="Sport" speed="3.08" pos="11.29" lane="148754587#0_1" slope="0.00"/>
        <vehicle id="32.4" x="64.07" y="234.57" angle="152.49" type="Sport" speed="4.41" pos="7.17" lane="148754587#0_0" slope="0.00"/>
        <vehicle id="32.5" x="61.26" y="239.97" angle="152.49" type="Sport" speed="0.00" pos="1.10" lane="148754587#0_0" slope="0.00"/>
    </timestep>
    <timestep time="8.00">
        <vehicle id="23.0" x="181.00" y="191.86" angle="59.61" type="Sport" speed="13.75" pos="63.84" lane="24527732#0_0" slope="0.00"/>
        <vehicle id="23.1" x="139.71" y="167.77" angle="59.78" type="Sport" speed="5.97" pos="16.04" lane="24527732#0_0" slope="0.00"/>
        <vehicle id="23.2" x="127.86" y="160.87" angle="59.78" type="Sport" speed="0.95" pos="2.32" lane="24527732#0_0" slope="0.00"/>
        <vehicle id="32.0" x="101.24" y="193.34" angle="150.97" type="Sport" speed="14.71" pos="61.07" lane="148754587#0_4" slope="0.00"/>
        <vehicle id="32.1" x="86.84" y="212.69" angle="150.96" type="Sport" speed="5.53" pos="37.16" lane="148754587#0_3" slope="0.00"/>
        <vehicle id="32.2" x="76.87" y="230.77" angle="152.51" type="Sport" speed="1.61" pos="16.48" lane="148754587#0_3" slope="0.00"/>
        <vehicle id="32.3" x="72.17" y="232.87" angle="152.51" type="Sport" speed="1.14" pos="12.43" lane="148754587#0_2" slope="0.00"/>
        <vehicle id="32.4" x="68.05" y="233.87" angle="152.49" type="Sport" speed="2.47" pos="9.64" lane="148754587#0_1" slope="0.00"/>
        <vehicle id="32.5" x="61.42" y="239.67" angle="152.49" type="Sport" speed="0.34" pos="1.44" lane="148754587#0_0" slope="0.00"/>
    </timestep>
    <timestep time="9.00">
        <vehicle id="23.0" x="192.86" y="198.82" angle="59.61" type="Sport" speed="13.75" pos="77.59" lane="24527732#0_0" slope="0.00"/>
        <vehicle id="23.1" x="146.13" y="171.51" angle="59.78" type="Sport" speed="7.43" pos="23.46" lane="24527732#0_0" slope="0.00"/>
        <vehicle id="23.2" x="128.92" y="161.49" angle="59.78" type="Sport" speed="1.23" pos="3.55" lane="24527732#0_0" slope="0.00"/>
        <vehicle id="23.3" x="126.80" y="160.25" angle="59.78" type="Sport" speed="0.00" pos="1.10" lane="24527732#0_0" slope="0.00"/>
        <vehicle id="32.0" x="108.27" y="180.68" angle="150.97" type="Sport" speed="14.51" pos="75.58" lane="148754587#0_4" slope="0.00"/>
        <vehicle id="32.1" x="92.53" y="209.03" angle="150.97" type="Sport" speed="5.94" pos="43.09" lane="148754587#0_4" slope="0.00"/>
        <vehicle id="32.2" x="77.85" y="228.89" angle="152.44" type="Sport" speed="2.12" pos="18.61" lane="148754587#0_3" slope="0.00"/>
        <vehicle id="32.3" x="73.76" y="229.81" angle="152.51" type="Sport" speed="3.45" pos="15.88" lane="148754587#0_2" slope="0.00"/>
        <vehicle id="32.4" x="69.99" y="230.14" angle="152.49" type="Sport" speed="4.20" pos="13.84" lane="148754587#0_1" slope="0.00"/>
        <vehicle id="32.5" x="62.77" y="237.07" angle="152.49" type="Sport" speed="2.93" pos="4.37" lane="148754587#0_0" slope="0.00"/>
        <vehicle id="32.6" x="61.26" y="239.97" angle="152.49" type="Sport" speed="0.00" pos="1.10" lane="148754587#0_0" slope="0.00"/>
    </timestep>
    <timestep time="10.00">
        <vehicle id="23.0" x="204.99" y="206.00" angle="59.09" type="Sport" speed="14.09" pos="91.68" lane="24527732#0_0" slope="0.00"/>
        <vehicle id="23.1" x="152.62" y="175.29" angle="59.78" type="Sport" speed="7.51" pos="30.97" lane="24527732#0_0" slope="0.00"/>
        <vehicle id="23.2" x="131.24" y="162.84" angle="59.78" type="Sport" speed="2.68" pos="6.23" lane="24527732#0_0" slope="0.00"/>
        <vehicle id="23.3" x="126.84" y="160.28" angle="59.78" type="Sport" speed="0.04" pos="1.14" lane="24527732#0_0" slope="0.00"/>
        <vehicle id="32.0" x="113.80" y="170.31" angle="152.70" type="Sport" speed="11.57" pos="6.23" lane="148754587#2_4" slope="0.00"/>
        <vehicle id="32.1" x="95.29" y="204.06" angle="150.97" type="Sport" speed="5.69" pos="48.78" lane="148754587#0_4" slope="0.00"/>
        <vehicle id="32.2" x="80.30" y="224.47" angle="150.96" type="Sport" speed="5.06" pos="23.67" lane="148754587#0_3" slope="0.00"/>
        <vehicle id="32.3" x="74.45" y="228.48" angle="152.51" type="Sport" speed="1.51" pos="17.39" lane="148754587#0_2" slope="0.00"/>
        <vehicle id="32.4" x="71.03" y="228.14" angle="152.49" type="Sport" speed="2.25" pos="16.09" lane="148754587#0_1" slope="0.00"/>
        <vehicle id="32.5" x="66.06" y="237.68" angle="152.49" type="Sport" speed="0.98" pos="5.35" lane="148754587#0_1" slope="0.00"/>
        <vehicle id="32.6" x="61.32" y="239.85" angle="152.49" type="Sport" speed="0.13" pos="1.23" lane="148754587#0_0" slope="0.00"/>
    </timestep>
    <timestep time="11.00">
        <vehicle id="23.0" x="216.95" y="213.16" angle="59.09" type="Sport" speed="13.94" pos="105.62" lane="24527732#0_0" slope="0.00"/>
        <vehicle id="23.1" x="160.67" y="179.98" angle="59.78" type="Sport" speed="9.31" pos="40.29" lane="24527732#0_0" slope="0.00"/>
        <vehicle id="23.2" x="133.45" y="164.13" angle="59.78" type="Sport" speed="2.57" pos="8.80" lane="24527732#0_0" slope="0.00"/>
        <vehicle id="23.3" x="127.04" y="160.39" angle="59.78" type="Sport" speed="0.24" pos="1.38" lane="24527732#0_0" slope="0.00"/>
        <vehicle id="32.0" x="116.89" y="164.42" angle="150.35" type="Sport" speed="6.65" pos="0.29" lane=":cluster_1851643995_30748136_9_0" slope="0.00"/>
        <vehicle id="32.1" x="98.25" y="198.72" angle="150.97" type="Sport" speed="6.12" pos="54.91" lane="148754587#0_4" slope="0.00"/>
        <vehicle id="32.2" x="84.63" y="223.26" angle="150.97" type="Sport" speed="3.11" pos="26.78" lane="148754587#0_4" slope="0.00"/>
        <vehicle id="32.3" x="79.38" y="226.14" angle="150.96" type="Sport" speed="4.37" pos="21.76" lane="148754587#0_3" slope="0.00"/>
        <vehicle id="32.4" x="74.00" y="229.36" angle="152.51" type="Sport" speed="0.31" pos="16.40" lane="148754587#0_2" slope="0.00"/>
        <vehicle id="32.5" x="66.42" y="237.00" angle="152.49" type="Sport" speed="0.77" pos="6.12" lane="148754587#0_1" slope="0.00"/>
        <vehicle id="32.6" x="62.31" y="237.96" angle="152.49" type="Sport" speed="2.14" pos="3.37" lane="148754587#0_0" slope="0.00"/>
        <vehicle id="32.7" x="61.26" y="239.97" angle="152.49" type="Sport" speed="0.00" pos="1.10" lane="148754587#0_0" slope="0.00"/>
    </timestep>
    <timestep time="12.00">
        <vehicle id="23.0" x="228.44" y="220.03" angle="59.09" type="Sport" speed="13.39" pos="119.01" lane="24527732#0_0" slope="0.00"/>
        <vehicle id="23.1" x="168.83" y="184.73" angle="59.78" type="Sport" speed="9.45" pos="49.73" lane="24527732#0_0" slope="0.00"/>
        <vehicle id="23.2" x="137.19" y="166.30" angle="59.78" type="Sport" speed="4.32" pos="13.12" lane="24527732#0_0" slope="0.00"/>
        <vehicle id="23.3" x="127.50" y="160.66" angle="59.78" type="Sport" speed="0.53" pos="1.91" lane="24527732#0_0" slope="0.00"/>
        <vehicle id="32.0" x="121.94" y="161.53" angle="91.21" type="Sport" speed="6.27" pos="6.56" lane=":cluster_1851643995_30748136_9_0" slope="0.00"/>
        <vehicle id="32.1" x="100.40" y="194.85" angle="150.97" type="Sport" speed="4.43" pos="59.34" lane="148754587#0_4" slope="0.00"/>
        <vehicle id="32.2" x="86.29" y="220.28" angle="150.97" type="Sport" speed="3.41" pos="30.19" lane="148754587#0_4" slope="0.00"/>
        <vehicle id="32.3" x="82.36" y="220.77" angle="150.96" type="Sport" speed="6.15" pos="27.90" lane="148754587#0_3" slope="0.00"/>
        <vehicle id="32.4" x="75.34" y="226.82" angle="151.47" type="Sport" speed="2.86" pos="19.26" lane="148754587#0_2" slope="0.00"/>
        <vehicle id="32.5" x="67.87" y="234.21" angle="152.49" type="Sport" speed="3.15" pos="9.26" lane="148754587#0_1" slope="0.00"/>
        <vehicle id="32.6" x="65.24" y="239.27" angle="152.49" type="Sport" speed="0.19" pos="3.56" lane="148754587#0_1" slope="0.00"/>
        <vehicle id="32.7" x="61.27" y="239.94" angle="152.49" type="Sport" speed="0.03" pos="1.13" lane="148754587#0_0" slope="0.00"/>
    </timestep>
    <timestep time="13.00">
        <vehicle id="23.0" x="240.13" y="227.03" angle="59.09" type="Sport" speed="13.62" pos="132.62" lane="24527732#0_0" slope="0.00"/>
        <vehicle id="23.1" x="177.02" y="189.53" angle="59.61" type="Sport" speed="9.49" pos="59.22" lane="24527732#0_0" slope="0.00"/>
        <vehicle id="23.2" x="140.90" y="168.47" angle="59.78" type="Sport" speed="4.30" pos="17.41" lane="24527732#0_0" slope="0.00"/>
        <vehicle id="23.3" x="128.34" y="161.15" angle="59.78" type="Sport" speed="0.98" pos="2.88" lane="24527732#0_0" slope="0.00"/>
        <vehicle id="32.0" x="127.44" y="164.32" angle="59.78" type="Sport" speed="6.18" pos="3.70" lane="24527732#0_1" slope="0.00"/>
        <vehicle id="32.1" x="102.95" y="190.25" angle="150.97" type="Sport" speed="5.27" pos="64.61" lane="148754587#0_4" slope="0.00"/>
        <vehicle id="32.2" x="88.14" y="216.95" angle="150.97" type="Sport" speed="3.82" pos="34.01" lane="148754587#0_4" slope="0.00"/>
        <vehicle id="32.3" x="84.40" y="217.10" angle="150.96" type="Sport" speed="4.20" pos="32.11" lane="148754587#0_3" slope="0.00"/>
        <vehicle id="32.4" x="78.61" y="227.52" angle="150.96" type="Sport" speed="0.92" pos="20.18" lane="148754587#0_3" slope="0.00"/>
        <vehicle id="32.5" x="71.26" y="234.62" angle="152.51" type="Sport" speed="1.20" pos="10.46" lane="148754587#0_2" slope="0.00"/>
        <vehicle id="32.6" x="65.42" y="238.92" angle="152.49" type="Sport" speed="0.39" pos="3.95" lane="148754587#0_1" slope="0.00"/>
        <vehicle id="32.7" x="62.50" y="237.58" angle="152.49" type="Sport" speed="2.66" pos="3.79" lane="148754587#0_0" slope="0.00"/>
        <vehicle id="32.8" x="61.26" y="239.97" angle="152.49" type="Sport" speed="0.00" pos="1.10" lane="148754587#0_0" slope="0.00"/>
    </timestep>
    <timestep time="14.00">
        <vehicle id="23.0" x="249.09" y="232.40" angle="59.09" type="Sport" speed="10.45" pos="143.08" lane="24527732#0_0" slope="0.00"/>
        <vehicle id="23.1" x="186.19" y="194.91" angle="59.61" type="Sport" speed="10.64" pos="69.86" lane="24527732#0_0" slope="0.00"/>
        <vehicle id="23.2" x="145.75" y="171.29" angle="59.78" type="Sport" speed="5.61" pos="23.03" lane="24527732#0_0" slope="0.00"/>
        <vehicle id="23.3" x="129.14" y="161.62" angle="59.78" type="Sport" speed="0.92" pos="3.81" lane="24527732#0_0" slope="0.00"/>
        <vehicle id="23.4" x="126.80" y="160.25" angle="59.78" type="Sport" speed="0.00" pos="1.10" lane="24527732#0_0" slope="0.00"/>
        <vehicle id="32.0" x="135.19" y="168.84" angle="59.78" type="Sport" speed="8.97" pos="12.67" lane="24527732#0_1" slope="0.00"/>
        <vehicle id="32.1" x="105.71" y="185.28" angle="150.97" type="Sport" speed="5.70" pos="70.31" lane="148754587#0_4" slope="0.00"/>
        <vehicle id="32.2" x="89.89" y="213.79" angle="150.97" type="Sport" speed="3.62" pos="37.63" lane="148754587#0_4" slope="0.00"/>
        <vehicle id="32.3" x="85.49" y="215.13" angle="150.96" type="Sport" speed="2.26" pos="34.36" lane="148754587#0_3" slope="0.00"/>
        <vehicle id="32.4" x="79.14" y="226.57" angle="150.96" type="Sport" speed="1.08" pos="21.26" lane="148754587#0_3" slope="0.00"/>
        <vehicle id="32.5" x="72.98" y="231.30" angle="152.51" type="Sport" speed="3.74" pos="14.20" lane="148754587#0_2" slope="0.00"/>
        <vehicle id="32.6" x="65.60" y="238.57" angle="152.49" type="Sport" speed="0.39" pos="4.35" lane="148754587#0_1" slope="0.00"/>
        <vehicle id="32.7" x="67.73" y="234.48" angle="152.49" type="Sport" speed="5.16" pos="8.95" lane="148754587#0_1" slope="0.00"/>
        <vehicle id="32.8" x="61.30" y="239.90" angle="152.49" type="Sport" speed="0.08" pos="1.18" lane="148754587#0_0" slope="0.00"/>
    </timestep>
    <timestep time="15.00">
        <vehicle id="23.0" x="253.77" y="235.20" angle="59.09" type="Sport" speed="5.45" pos="148.53" lane="24527732#0_0" slope="0.00"/>
        <vehicle id="23.1" x="194.63" y="199.85" angle="59.61" type="Sport" speed="9.77" pos="79.63" lane="24527732#0_0" slope="0.00"/>
        <vehicle id="23.2" x="150.57" y="174.10" angle="59.78" type="Sport" speed="5.58" pos="28.61" lane="24527732#0_0" slope="0.00"/>
        <vehicle id="23.3" x="130.78" y="162.57" angle="59.78" type="Sport" speed="1.89" pos="5.70" lane="24527732#0_0" slope="0.00"/>
        <vehicle id="23.4" x="126.86" y="160.29" angle="59.78" type="Sport" speed="0.07" pos="1.17" lane="24527732#0_0" slope="0.00"/>
        <vehicle id="32.0" x="144.39" y="174.19" angle="59.78" type="Sport" speed="10.65" pos="23.32" lane="24527732#0_1" slope="0.00"/>
        <vehicle id="32.1" x="108.40" y="180.44" angle="150.97" type="Sport" speed="5.54" pos="75.85" lane="148754587#0_4" slope="0.00"/>
        <vehicle id="32.2" x="91.74" y="210.45" angle="150.97" type="Sport" speed="3.83" pos="41.46" lane="148754587#0_4" slope="0.00"/>
        <vehicle id="32.3" x="88.46" y="216.37" angle="150.97" type="Sport" speed="0.31" pos="34.68" lane="148754587#0_4" slope="0.00"/>
        <vehicle id="32.4" x="79.89" y="225.21" angle="150.96" type="Sport" speed="1.56" pos="22.82" lane="148754587#0_3" slope="0.00"/>
        <vehicle id="32.5" x="73.81" y="229.71" angle="152.51" type="Sport" speed="1.79" pos="15.99" lane="148754587#0_2" slope="0.00"/>
        <vehicle id="32.6" x="65.78" y="238.23" angle="152.49" type="Sport" speed="0.39" pos="4.73" lane="148754587#0_1" slope="0.00"/>
        <vehicle id="32.7" x="70.85" y="228.49" angle="152.49" type="Sport" speed="6.75" pos="15.70" lane="148754587#0_1" slope="0.00"/>
        <vehicle id="32.8" x="62.52" y="237.55" angle="152.49" type="Sport" speed="2.64" pos="3.82" lane="148754587#0_0" slope="0.00"/>
        <vehicle id="32.9" x="61.26" y="239.97" angle="152.49" type="Sport" speed="0.00" pos="1.10" lane="148754587#0_0" slope="0.00"/>
    </timestep>
    <timestep time="16.00">
        <vehicle id="23.0" x="255.41" y="236.18" angle="59.09" type="Sport" speed="1.91" pos="150.44" lane="24527732#0_0" slope="0.00"/>
        <vehicle id="23.1" x="201.17" y="203.71" angle="59.09" type="Sport" speed="7.59" pos="87.22" lane="24527732#0_0" slope="0.00"/>
        <vehicle id="23.2" x="156.16" y="177.35" angle="59.78" type="Sport" speed="6.46" pos="35.07" lane="24527732#0_0" slope="0.00"/>
        <vehicle id="23.3" x="133.05" y="163.90" angle="59.78" type="Sport" speed="2.64" pos="8.34" lane="24527732#0_0" slope="0.00"/>
        <vehicle id="23.4" x="127.14" y="160.45" angle="59.78" type="Sport" speed="0.33" pos="1.50" lane="24527732#0_0" slope="0.00"/>
        <vehicle id="32.0" x="156.01" y="180.96" angle="59.78" type="Sport" speed="13.45" pos="36.78" lane="24527732#0_1" slope="0.00"/>
        <vehicle id="32.1" x="111.55" y="174.66" angle="152.70" type="Sport" speed="6.40" pos="1.33" lane="148754587#2_4" slope="0.00"/>
        <vehicle id="32.10" x="61.26" y="239.97" angle="152.49" type="Sport" speed="0.00" pos="1.10" lane="148754587#0_0" slope="0.00"/>
        <vehicle id="32.2" x="93.50" y="207.29" angle="150.97" type="Sport" speed="3.63" pos="45.09" lane="148754587#0_4" slope="0.00"/>
        <vehicle id="32.3" x="88.66" y="216.01" angle="150.97" type="Sport" speed="0.41" pos="35.09" lane="148754587#0_4" slope="0.00"/>
        <vehicle id="32.4" x="81.98" y="221.45" angle="150.96" type="Sport" speed="4.31" pos="27.13" lane="148754587#0_3" slope="0.00"/>
        <vehicle id="32.5" x="75.77" y="226.04" angle="150.96" type="Sport" speed="4.16" pos="20.15" lane="148754587#0_2" slope="0.00"/>
        <vehicle id="32.6" x="68.79" y="239.36" angle="152.51" type="Sport" speed="0.39" pos="5.12" lane="148754587#0_2" slope="0.00"/>
        <vehicle id="32.7" x="72.79" y="224.84" angle="150.98" type="Sport" speed="4.13" pos="19.83" lane="148754587#0_1" slope="0.00"/>
        <vehicle id="32.8" x="65.02" y="232.75" angle="152.49" type="Sport" speed="5.40" pos="9.22" lane="148754587#0_0" slope="0.00"/>
        <vehicle id="32.9" x="64.14" y="241.38" angle="152.49" type="Sport" speed="0.08" pos="1.18" lane="148754587#0_1" slope="0.00"/>
    </timestep>
    <timestep time="17.00">
        <vehicle id="23.0" x="255.86" y="236.45" angle="59.09" type="Sport" speed="0.52" pos="150.96" lane="24527732#0_0" slope="0.00"/>
        <vehicle id="23.1" x="207.71" y="207.62" angle="59.09" type="Sport" speed="7.62" pos="94.85" lane="24527732#0_0" slope="0.00"/>
        <vehicle id="23.2" x="158.20" y="178.54" angle="59.78" type="Sport" speed="2.36" pos="37.43" lane="24527732#0_0" slope="0.00"/>
        <vehicle id="23.3" x="135.30" y="165.20" angle="59.78" type="Sport" speed="2.60" pos="10.93" lane="24527732#0_0" slope="0.00"/>
        <vehicle id="23.4" x="127.71" y="160.78" angle="59.78" type="Sport" speed="0.65" pos="2.15" lane="24527732#0_0" slope="0.00"/>
        <vehicle id="32.0" x="165.96" y="186.76" angle="59.78" type="Sport" speed="11.51" pos="48.29" lane="24527732#0_1" slope="0.00"/>
        <vehicle id="32.1" x="115.03" y="167.93" angle="152.70" type="Sport" speed="7.57" pos="8.91" lane="148754587#2_4" slope="0.00"/>
        <vehicle id="32.10" x="64.36" y="240.96" angle="152.49" type="Sport" speed="0.56" pos="1.66" lane="148754587#0_1" slope="0.00"/>
        <vehicle id="32.11" x="61.26" y="239.97" angle="152.49" type="Sport" speed="0.00" pos="1.10" lane="148754587#0_0" slope="0.00"/>
        <vehicle id="32.2" x="95.81" y="203.12" angle="150.97" type="Sport" speed="4.78" pos="49.87" lane="148754587#0_4" slope="0.00"/>
        <vehicle id="32.3" x="88.85" y="215.66" angle="150.97" type="Sport" speed="0.41" pos="35.50" lane="148754587#0_4" slope="0.00"/>
        <vehicle id="32.4" x="85.21" y="215.63" angle="150.96" type="Sport" speed="6.66" pos="33.79" lane="148754587#0_3" slope="0.00"/>
        <vehicle id="32.5" x="76.84" y="224.11" angle="150.96" type="Sport" speed="2.21" pos="22.36" lane="148754587#0_2" slope="0.00"/>
        <vehicle id="32.6" x="72.07" y="239.99" angle="152.51" type="Sport" speed="0.96" pos="6.08" lane="148754587#0_3" slope="0.00"/>
        <vehicle id="32.7" x="73.77" y="223.08" angle="150.98" type="Sport" speed="2.01" pos="21.84" lane="148754587#0_1" slope="0.00"/>
        <vehicle id="32.8" x="66.39" y="230.12" angle="152.49" type="Sport" speed="2.96" pos="12.18" lane="148754587#0_0" slope="0.00"/>
        <vehicle id="32.9" x="67.73" y="241.40" angle="152.51" type="Sport" speed="1.64" pos="2.82" lane="148754587#0_2" slope="0.00"/>
    </timestep>
    <timestep time="18.00">
        <vehicle id="23.0" x="256.02" y="236.54" angle="59.09" type="Sport" speed="0.19" pos="151.15" lane="24527732#0_0" slope="0.00"/>
        <vehicle id="23.1" x="214.00" y="211.39" angle="59.09" type="Sport" speed="7.34" pos="102.18" lane="24527732#0_0" slope="0.00"/>
        <vehicle id="23.2" x="160.27" y="179.74" angle="59.78" type="Sport" speed="2.40" pos="39.82" lane="24527732#0_0" slope="0.00"/>
        <vehicle id="23.3" x="137.06" y="166.23" angle="59.78" type="Sport" speed="2.04" pos="12.97" lane="24527732#0_0" slope="0.00"/>
        <vehicle id="23.4" x="128.45" y="161.21" angle="59.78" type="Sport" speed="0.85" pos="3.00" lane="24527732#0_0" slope="0.00"/>
        <vehicle id="32.0" x="174.21" y="191.59" angle="59.61" type="Sport" speed="9.57" pos="57.85" lane="24527732#0_1" slope="0.00"/>
        <vehicle id="32.1" x="117.75" y="163.21" angle="144.46" type="Sport" speed="5.46" pos="1.77" lane=":cluster_1851643995_30748136_9_0" slope="0.00"/>
        <vehicle id="32.10" x="65.53" y="238.70" angle="152.49" type="Sport" speed="2.54" pos="4.20" lane="148754587#0_1" slope="0.00"/>
        <vehicle id="32.11" x="61.62" y="239.29" angle="152.49" type="Sport" speed="0.77" pos="1.87" lane="148754587#0_0" slope="0.00"/>
        <vehicle id="32.2" x="98.29" y="198.66" angle="150.97" type="Sport" speed="5.10" pos="54.97" lane="148754587#0_4" slope="0.00"/>
        <vehicle id="32.3" x="89.05" y="215.30" angle="150.97" type="Sport" speed="0.41" pos="35.90" lane="148754587#0_4" slope="0.00"/>
        <vehicle id="32.4" x="89.73" y="207.49" angle="150.96" type="Sport" speed="9.32" pos="43.11" lane="148754587#0_3" slope="0.00"/>
        <vehicle id="32.5" x="76.97" y="223.88" angle="150.96" type="Sport" speed="0.27" pos="22.63" lane="148754587#0_2" slope="0.00"/>
        <vehicle id="32.6" x="76.24" y="238.91" angle="152.49" type="Sport" speed="2.90" pos="8.98" lane="148754587#0_4" slope="0.00"/>
        <vehicle id="32.7" x="73.80" y="223.02" angle="150.98" type="Sport" speed="0.07" pos="21.91" lane="148754587#0_1" slope="0.00"/>
        <vehicle id="32.8" x="66.86" y="229.22" angle="152.49" type="Sport" speed="1.02" pos="13.20" lane="148754587#0_0" slope="0.00"/>
        <vehicle id="32.9" x="71.39" y="241.31" angle="152.51" type="Sport" speed="1.78" pos="4.60" lane="148754587#0_3" slope="0.00"/>
    </timestep>
    <timestep time="19.00">
        <vehicle id="23.0" x="256.06" y="236.57" angle="59.09" type="Sport" speed="0.04" pos="151.19" lane="24527732#0_0" slope="0.00"/>
        <vehicle id="23.1" x="219.43" y="214.64" angle="59.09" type="Sport" speed="6.33" pos="108.51" lane="24527732#0_0" slope="0.00"/>
        <vehicle id="23.2" x="162.80" y="181.22" angle="59.78" type="Sport" speed="2.93" pos="42.75" lane="24527732#0_0" slope="0.00"/>
        <vehicle id="23.3" x="139.96" y="167.92" angle="59.78" type="Sport" speed="3.36" pos="16.33" lane="24527732#0_0" slope="0.00"/>
        <vehicle id="23.4" x="128.99" y="161.53" angle="59.78" type="Sport" speed="0.63" pos="3.63" lane="24527732#0_0" slope="0.00"/>
        <vehicle id="23.5" x="126.80" y="160.25" angle="59.78" type="Sport" speed="0.00" pos="1.10" lane="24527732#0_0" slope="0.00"/>
        <vehicle id="32.0" x="180.78" y="195.44" angle="59.61" type="Sport" speed="7.62" pos="65.47" lane="24527732#0_1" slope="0.00"/>
        <vehicle id="32.1" x="123.57" y="162.19" angle="68.07" type="Sport" speed="6.55" pos="8.31" lane=":cluster_1851643995_30748136_9_0" slope="0.00"/>
        <vehicle id="32.10" x="68.64" y="239.65" angle="152.51" type="Sport" speed="0.60" pos="4.79" lane="148754587#0_2" slope="0.00"/>
        <vehicle id="32.11" x="64.96" y="239.79" angle="152.49" type="Sport" speed="1.10" pos="2.97" lane="148754587#0_1" slope="0.00"/>
        <vehicle id="32.12" x="61.26" y="239.97" angle="152.49" type="Sport" speed="0.00" pos="1.10" lane="148754587#0_0" slope="0.00"/>
        <vehicle id="32.2" x="100.73" y="194.26" angle="150.97" type="Sport" speed="5.05" pos="60.02" lane="148754587#0_4" slope="0.00"/>
        <vehicle id="32.3" x="89.70" y="214.12" angle="150.97" type="Sport" speed="1.35" pos="37.25" lane="148754587#0_4" slope="0.00"/>
        <vehicle id="32.4" x="93.30" y="201.05" angle="150.96" type="Sport" speed="7.38" pos="50.48" lane="148754587#0_3" slope="0.00"/>
        <vehicle id="32.5" x="78.00" y="222.02" angle="150.96" type="Sport" speed="2.12" pos="24.75" lane="148754587#0_2" slope="0.00"/>
        <vehicle id="32.6" x="77.79" y="235.92" angle="152.49" type="Sport" speed="3.38" pos="12.36" lane="148754587#0_4" slope="0.00"/>