<?xml version="1.0" encoding="UTF-8"?>

<!-- generated on 07/31/19 12:14:21 by Eclipse SUMO Version 1.1.0
<configuration xmlns:xsi="http://www.w3.org/2001/XMLSchema-instance" xsi:noNamespaceSchemaLocation="http://sumo.dlr.de/xsd/sumoConfiguration.xsd">

    <input>
        <net-file value="mapNetconvert.net.xml"/>
        <route-files value="C:\Users\Neblis\Desktop\C4R\models\flow\routes.rou.xml"/>
        <additional-files value="C:\Users\Neblis\Desktop\C4R\vehicles.add.xml"/>
    </input>

    <output>
        <fcd-output value="C:\Users\Neblis\Desktop\C4R\models\flow\mapNetconvert.fcd"/>
    </output>

    <report>
        <log value="C:\Users\Neblis\Desktop\C4R\log.txt"/>
    </report>

</configuration>
-->

<fcd-export xmlns:xsi="http://www.w3.org/2001/XMLSchema-instance" xsi:noNamespaceSchemaLocation="http://sumo.dlr.de/xsd/fcd_file.xsd">
    <timestep time="0.00"/>
    <timestep time="1.00">
        <vehicle id="12.0" x="1594.73" y="1295.26" angle="252.28" type="Sport" speed="0.00" pos="1.10" lane="49499523_0" slope="0.00"/>
    </timestep>
    <timestep time="2.00">
        <vehicle id="12.0" x="1594.13" y="1291.70" angle="252.29" type="Sport" speed="1.66" pos="2.76" lane="49499523_1" slope="0.00"/>
        <vehicle id="12.1" x="1594.73" y="1295.26" angle="252.28" type="Sport" speed="0.00" pos="1.10" lane="49499523_0" slope="0.00"/>
    </timestep>
    <timestep time="3.00">
        <vehicle id="12.0" x="1590.70" y="1290.61" angle="252.29" type="Sport" speed="3.59" pos="6.36" lane="49499523_1" slope="0.00"/>
        <vehicle id="12.1" x="1591.94" y="1294.36" angle="252.28" type="Sport" speed="2.93" pos="4.03" lane="49499523_0" slope="0.00"/>
        <vehicle id="12.2" x="1594.73" y="1295.26" angle="252.28" type="Sport" speed="0.00" pos="1.10" lane="49499523_0" slope="0.00"/>
    </timestep>
    <timestep time="4.00">
        <vehicle id="12.0" x="1584.77" y="1288.71" angle="252.29" type="Sport" speed="6.23" pos="12.58" lane="49499523_1" slope="0.00"/>
        <vehicle id="12.1" x="1591.00" y="1294.06" angle="252.28" type="Sport" speed="0.99" pos="5.02" lane="49499523_0" slope="0.00"/>
        <vehicle id="12.2" x="1595.59" y="1292.17" angle="252.29" type="Sport" speed="0.13" pos="1.23" lane="49499523_1" slope="0.00"/>
        <vehicle id="12.3" x="1594.73" y="1295.26" angle="252.28" type="Sport" speed="0.00" pos="1.10" lane="49499523_0" slope="0.00"/>
    </timestep>
    <timestep time="5.00">
        <vehicle id="12.0" x="1577.04" y="1286.24" angle="252.28" type="Sport" speed="8.11" pos="20.70" lane="49499523_1" slope="0.00"/>
        <vehicle id="12.1" x="1587.98" y="1293.10" angle="252.28" type="Sport" speed="3.17" pos="8.19" lane="49499523_0" slope="0.00"/>
        <vehicle id="12.2" x="1594.33" y="1291.76" angle="252.29" type="Sport" speed="1.32" pos="2.55" lane="49499523_1" slope="0.00"/>
        <vehicle id="12.3" x="1594.57" y="1295.20" angle="252.28" type="Sport" speed="0.17" pos="1.27" lane="49499523_0" slope="0.00"/>
    </timestep>
    <timestep time="6.00">
        <vehicle id="12.0" x="1566.46" y="1282.86" angle="252.28" type="Sport" speed="11.11" pos="31.80" lane="49499523_1" slope="0.00"/>
        <vehicle id="12.1" x="1587.79" y="1289.68" angle="252.29" type="Sport" speed="1.22" pos="9.41" lane="49499523_1" slope="0.00"/>
        <vehicle id="12.2" x="1593.85" y="1291.61" angle="252.29" type="Sport" speed="0.50" pos="3.06" lane="49499523_1" slope="0.00"/>
        <vehicle id="12.3" x="1594.05" y="1295.04" angle="252.28" type="Sport" speed="0.54" pos="1.82" lane="49499523_0" slope="0.00"/>
    </timestep>
    <timestep time="7.00">
        <vehicle id="12.0" x="1553.83" y="1278.83" angle="252.29" type="Sport" speed="13.26" pos="45.06" lane="49499523_1" slope="0.00"/>
        <vehicle id="12.1" x="1584.41" y="1288.60" angle="252.29" type="Sport" speed="3.55" pos="12.96" lane="49499523_1" slope="0.00"/>
        <vehicle id="12.2" x="1593.27" y="1291.43" angle="252.29" type="Sport" speed="0.60" pos="3.66" lane="49499523_1" slope="0.00"/>
        <vehicle id="12.3" x="1591.93" y="1294.36" angle="252.28" type="Sport" speed="2.23" pos="4.05" lane="49499523_0" slope="0.00"/>
        <vehicle id="12.4" x="1594.73" y="1295.26" angle="252.28" type="Sport" speed="0.00" pos="1.10" lane="49499523_0" slope="0.00"/>
    </timestep>
    <timestep time="8.00">
        <vehicle id="12.0" x="1541.46" y="1274.88" angle="252.29" type="Sport" speed="12.98" pos="58.04" lane="49499523_1" slope="0.00"/>
        <vehicle id="12.1" x="1579.84" y="1287.14" angle="252.29" type="Sport" speed="4.80" pos="17.76" lane="49499523_1" slope="0.00"/>
        <vehicle id="12.2" x="1592.30" y="1291.12" angle="252.29" type="Sport" speed="1.02" pos="4.68" lane="49499523_1" slope="0.00"/>
        <vehicle id="12.3" x="1587.68" y="1293.00" angle="252.28" type="Sport" speed="4.46" pos="8.51" lane="49499523_0" slope="0.00"/>
        <vehicle id="12.4" x="1594.62" y="1295.22" angle="252.28" type="Sport" speed="0.11" pos="1.21" lane="49499523_0" slope="0.00"/>
    </timestep>
    <timestep time="9.00">
        <vehicle id="12.0" x="1533.86" y="1272.45" angle="252.29" type="Sport" speed="7.98" pos="66.03" lane="49499523_1" slope="0.00"/>
        <vehicle id="12.1" x="1574.05" y="1285.29" angle="252.28" type="Sport" speed="6.08" pos="23.84" lane="49499523_1" slope="0.00"/>
        <vehicle id="12.2" x="1592.07" y="1291.04" angle="252.29" type="Sport" speed="0.25" pos="4.93" lane="49499523_1" slope="0.00"/>
        <vehicle id="12.3" x="1585.28" y="1292.23" angle="252.28" type="Sport" speed="2.52" pos="11.02" lane="49499523_0" slope="0.00"/>
        <vehicle id="12.4" x="1594.05" y="1295.04" angle="252.28" type="Sport" speed="0.61" pos="1.82" lane="49499523_0" slope="0.00"/>
    </timestep>
    <timestep time="10.00">
        <vehicle id="12.0" x="1531.23" y="1271.11" angle="223.34" type="Sport" speed="3.05" pos="0.86" lane=":2547038228_2_0" slope="0.00"/>
        <vehicle id="12.1" x="1568.48" y="1283.51" angle="252.28" type="Sport" speed="5.84" pos="29.68" lane="49499523_1" slope="0.00"/>
        <vehicle id="12.2" x="1591.52" y="1290.87" angle="252.29" type="Sport" speed="0.57" pos="5.50" lane="49499523_1" slope="0.00"/>
        <vehicle id="12.3" x="1585.71" y="1289.01" angle="252.29" type="Sport" speed="0.57" pos="11.59" lane="49499523_1" slope="0.00"/>
        <vehicle id="12.4" x="1593.44" y="1294.84" angle="252.28" type="Sport" speed="0.64" pos="2.46" lane="49499523_0" slope="0.00"/>
    </timestep>
    <timestep time="11.00">
        <vehicle id="12.0" x="1532.31" y="1268.85" angle="106.42" type="Sport" speed="3.37" pos="1.89" lane=":2547038228_6_0" slope="0.00"/>
        <vehicle id="12.1" x="1563.66" y="1281.97" angle="252.28" type="Sport" speed="5.06" pos="34.74" lane="49499523_1" slope="0.00"/>
        <vehicle id="12.2" x="1590.97" y="1290.69" angle="252.29" type="Sport" speed="0.58" pos="6.07" lane="49499523_1" slope="0.00"/>
        <vehicle id="12.3" x="1584.51" y="1288.63" angle="252.29" type="Sport" speed="1.26" pos="12.86" lane="49499523_1" slope="0.00"/>
        <vehicle id="12.4" x="1590.96" y="1294.05" angle="252.28" type="Sport" speed="2.61" pos="5.06" lane="49499523_0" slope="0.00"/>
        <vehicle id="12.5" x="1594.73" y="1295.26" angle="252.28" type="Sport" speed="0.00" pos="1.10" lane="49499523_0" slope="0.00"/>
    </timestep>
    <timestep time="12.00">
        <vehicle id="12.0" x="1535.68" y="1269.67" angle="72.29" type="Sport" speed="3.53" pos="3.09" lane="-49499523_1" slope="0.00"/>
        <vehicle id="12.1" x="1556.17" y="1279.57" angle="252.29" type="Sport" speed="7.87" pos="42.61" lane="49499523_1" slope="0.00"/>
        <vehicle id="12.2" x="1590.46" y="1290.53" angle="252.29" type="Sport" speed="0.54" pos="6.62" lane="49499523_1" slope="0.00"/>
        <vehicle id="12.3" x="1581.97" y="1287.82" angle="252.29" type="Sport" speed="2.67" pos="15.53" lane="49499523_1" slope="0.00"/>
        <vehicle id="12.4" x="1586.99" y="1292.78" angle="252.28" type="Sport" speed="4.16" pos="9.22" lane="49499523_0" slope="0.00"/>
        <vehicle id="12.5" x="1594.50" y="1295.18" angle="252.28" type="Sport" speed="0.24" pos="1.34" lane="49499523_0" slope="0.00"/>
    </timestep>
    <timestep time="13.00">
        <vehicle id="12.0" x="1541.66" y="1271.58" angle="72.29" type="Sport" speed="6.28" pos="9.37" lane="-49499523_1" slope="0.00"/>
        <vehicle id="12.1" x="1546.63" y="1276.53" angle="252.29" type="Sport" speed="10.01" pos="52.62" lane="49499523_1" slope="0.00"/>
        <vehicle id="12.2" x="1590.39" y="1290.50" angle="252.29" type="Sport" speed="0.07" pos="6.69" lane="49499523_1" slope="0.00"/>
        <vehicle id="12.3" x="1578.34" y="1286.66" angle="252.29" type="Sport" speed="3.81" pos="19.34" lane="49499523_1" slope="0.00"/>
        <vehicle id="12.4" x="1584.88" y="1292.11" angle="252.28" type="Sport" speed="2.22" pos="11.44" lane="49499523_0" slope="0.00"/>
        <vehicle id="12.5" x="1593.97" y="1295.01" angle="252.28" type="Sport" speed="0.56" pos="1.90" lane="49499523_0" slope="0.00"/>
    </timestep>
    <timestep time="14.00">
        <vehicle id="12.0" x="1549.48" y="1274.08" angle="72.29" type="Sport" speed="8.21" pos="17.58" lane="-49499523_1" slope="0.00"/>
        <vehicle id="12.1" x="1537.67" y="1273.67" angle="252.29" type="Sport" speed="9.41" pos="62.03" lane="49499523_1" slope="0.00"/>
        <vehicle id="12.2" x="1590.04" y="1290.39" angle="252.29" type="Sport" speed="0.37" pos="7.06" lane="49499523_1" slope="0.00"/>
        <vehicle id="12.3" x="1573.91" y="1285.24" angle="252.28" type="Sport" speed="4.64" pos="23.98" lane="49499523_1" slope="0.00"/>
        <vehicle id="12.4" x="1585.60" y="1288.98" angle="252.29" type="Sport" speed="0.27" pos="11.71" lane="49499523_1" slope="0.00"/>
        <vehicle id="12.5" x="1593.10" y="1294.73" angle="252.28" type="Sport" speed="0.91" pos="2.81" lane="49499523_0" slope="0.00"/>
    </timestep>
    <timestep time="15.00">
        <vehicle id="12.0" x="1559.46" y="1277.26" angle="72.29" type="Sport" speed="10.47" pos="28.05" lane="-49499523_1" slope="0.00"/>
        <vehicle id="12.1" x="1532.60" y="1272.04" angle="252.29" type="Sport" speed="5.32" pos="67.35" lane="49499523_1" slope="0.00"/>
        <vehicle id="12.2" x="1589.71" y="1290.29" angle="252.29" type="Sport" speed="0.34" pos="7.40" lane="49499523_1" slope="0.00"/>
        <vehicle id="12.3" x="1568.74" y="1283.59" angle="252.28" type="Sport" speed="5.43" pos="29.41" lane="49499523_1" slope="0.00"/>
        <vehicle id="12.4" x="1584.87" y="1288.74" angle="252.29" type="Sport" speed="0.77" pos="12.48" lane="49499523_1" slope="0.00"/>
        <vehicle id="12.5" x="1590.29" y="1293.84" angle="252.28" type="Sport" speed="2.95" pos="5.76" lane="49499523_0" slope="0.00"/>
        <vehicle id="12.6" x="1594.73" y="1295.26" angle="252.28" type="Sport" speed="0.00" pos="1.10" lane="49499523_0" slope="0.00"/>
    </timestep>
    <timestep time="16.00">
        <vehicle id="12.0" x="1572.07" y="1281.29" angle="72.28" type="Sport" speed="13.24" pos="41.29" lane="-49499523_1" slope="0.00"/>
        <vehicle id="12.1" x="1530.85" y="1269.65" angle="180.45" type="Sport" speed="3.38" pos="0.17" lane=":2547038228_6_0" slope="0.00"/>
        <vehicle id="12.2" x="1589.48" y="1290.22" angle="252.29" type="Sport" speed="0.24" pos="7.64" lane="49499523_1" slope="0.00"/>
        <vehicle id="12.3" x="1564.23" y="1282.15" angle="252.28" type="Sport" speed="4.74" pos="34.15" lane="49499523_1" slope="0.00"/>
        <vehicle id="12.4" x="1583.35" y="1288.26" angle="252.29" type="Sport" speed="1.59" pos="14.07" lane="49499523_1" slope="0.00"/>
        <vehicle id="12.5" x="1584.67" y="1292.04" angle="252.28" type="Sport" speed="5.90" pos="11.66" lane="49499523_0" slope="0.00"/>
        <vehicle id="12.6" x="1594.40" y="1295.15" angle="252.28" type="Sport" speed="0.35" pos="1.45" lane="49499523_0" slope="0.00"/>
    </timestep>
    <timestep time="17.00">
        <vehicle id="12.0" x="1584.68" y="1285.32" angle="72.25" type="Sport" speed="13.23" pos="54.52" lane="-49499523_1" slope="0.00"/>
        <vehicle id="12.1" x="1533.68" y="1269.03" angle="72.71" type="Sport" speed="3.15" pos="0.99" lane="-49499523_1" slope="0.00"/>
        <vehicle id="12.2" x="1589.10" y="1290.09" angle="252.29" type="Sport" speed="0.40" pos="8.04" lane="49499523_1" slope="0.00"/>
        <vehicle id="12.3" x="1559.97" y="1280.79" angle="252.29" type="Sport" speed="4.47" pos="38.62" lane="49499523_1" slope="0.00"/>
        <vehicle id="12.4" x="1581.83" y="1287.77" angle="252.29" type="Sport" speed="1.59" pos="15.67" lane="49499523_1" slope="0.00"/>
        <vehicle id="12.5" x="1576.60" y="1289.46" angle="252.28" type="Sport" speed="8.47" pos="20.13" lane="49499523_0" slope="0.00"/>
        <vehicle id="12.6" x="1593.29" y="1294.79" angle="252.28" type="Sport" speed="1.17" pos="2.61" lane="49499523_0" slope="0.00"/>
    </timestep>
    <timestep time="18.00">
        <vehicle id="12.0" x="1598.64" y="1289.78" angle="72.97" type="Sport" speed="14.65" pos="0.95" lane=":2547038235_3_1" slope="0.00"/>
        <vehicle id="12.1" x="1539.43" y="1270.87" angle="72.29" type="Sport" speed="6.03" pos="7.02" lane="-49499523_1" slope="0.00"/>
        <vehicle id="12.2" x="1588.44" y="1289.88" angle="252.29" type="Sport" speed="0.69" pos="8.73" lane="49499523_1" slope="0.00"/>
        <vehicle id="12.3" x="1553.37" y="1278.68" angle="252.29" type="Sport" speed="6.93" pos="45.55" lane="49499523_1" slope="0.00"/>
        <vehicle id="12.4" x="1581.04" y="1287.52" angle="252.29" type="Sport" speed="0.83" pos="16.50" lane="49499523_1" slope="0.00"/>
        <vehicle id="12.5" x="1570.38" y="1287.47" angle="252.28" type="Sport" speed="6.53" pos="26.66" lane="49499523_0" slope="0.00"/>
        <vehicle id="12.6" x="1591.58" y="1294.25" angle="252.28" type="Sport" speed="1.79" pos="4.41" lane="49499523_0" slope="0.00"/>
        <vehicle id="12.7" x="1594.73" y="1295.26" angle="252.28" type="Sport" speed="0.00" pos="1.10" lane="49499523_0" slope="0.00"/>
    </timestep>
    <timestep time="19.00">
        <vehicle id="12.0" x="1612.17" y="1293.82" angle="73.53" type="Sport" speed="14.09" pos="9.66" lane="-504582668_1" slope="0.00"/>
        <vehicle id="12.1" x="1547.15" y="1273.33" angle="72.29" type="Sport" speed="8.11" pos="15.13" lane="-49499523_1" slope="0.00"/>
        <vehicle id="12.2" x="1587.98" y="1289.74" angle="252.29" type="Sport" speed="0.48" pos="9.21" lane="49499523_1" slope="0.00"/>
        <vehicle id="12.3" x="1544.19" y="1275.75" angle="252.29" type="Sport" speed="9.64" pos="55.18" lane="49499523_1" slope="0.00"/>
        <vehicle id="12.4" x="1579.73" y="1287.10" angle="252.29" type="Sport" speed="1.37" pos="17.87" lane="49499523_1" slope="0.00"/>
        <vehicle id="12.5" x="1566.02" y="1286.08" angle="252.28" type="Sport" speed="4.58" pos="31.25" lane="49499523_0" slope="0.00"/>
        <vehicle id="12.6" x="1589.22" y="1293.49" angle="252.28" type="Sport" speed="2.49" pos="6.89" lane="49499523_0" slope="0.00"/>
        <vehicle id="12.7" x="1594.59" y="1295.21" angle="252.28" type="Sport" speed="0.15" pos="1.25" lane="49499523_0" slope="0.00"/>
    </timestep>
    <timestep time="20.00">
        <vehicle id="12.0" x="1624.88" y="1297.58" angle="73.53" type="Sport" speed="13.26" pos="22.92" lane="-504582668_1" slope="0.00"/>
        <vehicle id="12.1" x="1557.10" y="1276.51" angle="72.29" type="Sport" speed="10.44" pos="25.57" lane="-49499523_1" slope="0.00"/>
        <vehicle id="12.2" x="1587.52" y="1289.59" angle="252.29" type="Sport" speed="0.48" pos="9.70" lane="49499523_1" slope="0.00"/>
        <vehicle id="12.3" x="1535.81" y="1273.07" angle="252.29" type="Sport" speed="8.79" pos="63.97" lane="49499523_1" slope="0.00"/>
        <vehicle id="12.4" x="1578.20" y="1286.61" angle="252.29" type="Sport" speed="1.61" pos="19.48" lane="49499523_1" slope="0.00"/>
        <vehicle id="12.5" x="1564.48" y="1282.23" angle="252.28" type="Sport" speed="2.64" pos="33.89" lane="49499523_1" slope="0.00"/>
        <vehicle id="12.6" x="1586.83" y="1292.73" angle="252.28" type="Sport" speed="2.50" pos="9.39" lane="49499523_0" slope="0.00"/>
        <vehicle id="12.7" x="1594.15" y="1295.07" angle="252.28" type="Sport" speed="0.46" pos="1.71" lane="49499523_0" slope="0.00"/>
    </timestep>
    <timestep time="21.00">
        <vehicle id="12.0" x="1638.39" y="1301.57" angle="73.53" type="Sport" speed="14.09" pos="37.01" lane="-504582668_1" slope="0.00"/>
        <vehicle id="12.1" x="1566.19" y="1279.41" angle="72.28" type="Sport" speed="9.54" pos="35.12" lane="-49499523_1" slope="0.00"/>
        <vehicle id="12.2" x="1587.06" y="1289.44" angle="252.29" type="Sport" speed="0.48" pos="10.18" lane="49499523_1" slope="0.00"/>
        <vehicle id="12.3" x="1532.20" y="1271.92" angle="252.29" type="Sport" speed="3.79" pos="67.77" lane="49499523_1" slope="0.00"/>
        <vehicle id="12.4" x="1577.00" y="1286.23" angle="252.28" type="Sport" speed="1.26" pos="20.75" lane="49499523_1" slope="0.00"/>
        <vehicle id="12.5" x="1561.39" y="1281.24" angle="252.29" type="Sport" speed="3.24" pos="37.13" lane="49499523_1" slope="0.00"/>
        <vehicle id="12.6" x="1581.81" y="1291.12" angle="252.28" type="Sport" speed="5.28" pos="14.67" lane="49499523_0" slope="0.00"/>
        <vehicle id="12.7" x="1593.46" y="1294.85" angle="252.28" type="Sport" speed="0.73" pos="2.44" lane="49499523_0" slope="0.00"/>
    </timestep>
    <timestep time="22.00">
        <vehicle id="12.0" x="1652.01" y="1305.62" angle="73.40" type="Sport" speed="14.21" pos="2.79" lane="-492264418_1" slope="0.00"/>
        <vehicle id="12.1" x="1575.95" y="1282.53" angle="72.28" type="Sport" speed="10.25" pos="45.36" lane="-49499523_1" slope="0.00"/>
        <vehicle id="12.2" x="1586.70" y="1289.33" angle="252.29" type="Sport" speed="0.38" pos="10.56" lane="49499523_1" slope="0.00"/>
        <vehicle id="12.3" x="1531.46" y="1269.10" angle="132.46" type="Sport" speed="3.80" pos="1.01" lane=":2547038228_6_0" slope="0.00"/>
        <vehicle id="12.4" x="1575.79" y="1285.84" angle="252.28" type="Sport" speed="1.26" pos="22.01" lane="49499523_1" slope="0.00"/>
        <vehicle id="12.5" x="1558.16" y="1280.21" angle="252.29" type="Sport" speed="3.39" pos="40.52" lane="49499523_1" slope="0.00"/>
        <vehicle id="12.6" x="1574.12" y="1288.67" angle="252.28" type="Sport" speed="8.07" pos="22.74" lane="49499523_0" slope="0.00"/>
        <vehicle id="12.7" x="1592.54" y="1294.55" angle="252.28" type="Sport" speed="0.97" pos="3.40" lane="49499523_0" slope="0.00"/>
        <vehicle id="12.8" x="1594.73" y="1295.26" angle="252.28" type="Sport" speed="0.00" pos="1.10" lane="49499523_0" slope="0.00"/>
    </timestep>
    <timestep time="23.00">
        <vehicle id="12.0" x="1665.94" y="1309.77" angle="73.40" type="Sport" speed="14.54" pos="17.32" lane="-492264418_1" slope="0.00"/>
        <vehicle id="12.1" x="1586.14" y="1285.79" angle="72.25" type="Sport" speed="10.69" pos="56.06" lane="-49499523_1" slope="0.00"/>
        <vehicle id="12.2" x="1585.65" y="1288.99" angle="252.29" type="Sport" speed="1.10" pos="11.66" lane="49499523_1" slope="0.00"/>
        <vehicle id="12.3" x="1534.27" y="1269.22" angle="72.29" type="Sport" speed="2.94" pos="1.60" lane="-49499523_1" slope="0.00"/>
        <vehicle id="12.4" x="1574.54" y="1285.44" angle="252.28" type="Sport" speed="1.32" pos="23.33" lane="49499523_1" slope="0.00"/>
        <vehicle id="12.5" x="1552.17" y="1278.30" angle="252.29" type="Sport" speed="6.29" pos="46.81" lane="49499523_1" slope="0.00"/>
        <vehicle id="12.6" x="1568.29" y="1286.81" angle="252.28" type="Sport" speed="6.12" pos="28.86" lane="49499523_0" slope="0.00"/>
        <vehicle id="12.7" x="1589.82" y="1293.69" angle="252.28" type="Sport" speed="2.85" pos="6.26" lane="49499523_0" slope="0.00"/>
        <vehicle id="12.8" x="1594.70" y="1295.24" angle="252.28" type="Sport" speed="0.03" pos="1.13" lane="49499523_0" slope="0.00"/>
    </timestep>
    <timestep time="24.00">
        <vehicle id="12.0" x="1678.64" y="1313.56" angle="73.40" type="Sport" speed="13.26" pos="30.58" lane="-492264418_1" slope="0.00"/>
        <vehicle id="12.1" x="1596.61" y="1289.14" angle="72.25" type="Sport" speed="11.00" pos="67.05" lane="-49499523_1" slope="0.00"/>
        <vehicle id="12.2" x="1584.77" y="1288.71" angle="252.29" type="Sport" speed="0.92" pos="12.58" lane="49499523_1" slope="0.00"/>
        <vehicle id="12.3" x="1539.71" y="1270.95" angle="72.29" type="Sport" speed="5.71" pos="7.31" lane="-49499523_1" slope="0.00"/>
        <vehicle id="12.4" x="1573.92" y="1285.24" angle="252.28" type="Sport" speed="0.65" pos="23.98" lane="49499523_1" slope="0.00"/>
        <vehicle id="12.5" x="1543.97" y="1275.68" angle="252.29" type="Sport" speed="8.61" pos="55.41" lane="49499523_1" slope="0.00"/>
        <vehicle id="12.6" x="1564.31" y="1285.54" angle="252.28" type="Sport" speed="4.18" pos="33.04" lane="49499523_0" slope="0.00"/>
        <vehicle id="12.7" x="1587.29" y="1292.88" angle="252.28" type="Sport" speed="2.66" pos="8.92" lane="49499523_0" slope="0.00"/>
        <vehicle id="12.8" x="1594.30" y="1295.12" angle="252.28" type="Sport" speed="0.41" pos="1.55" lane="49499523_0" slope="0.00"/>
    </timestep>
    <timestep time="25.00">
        <vehicle id="12.0" x="1692.21" y="1317.60" angle="73.40" type="Sport" speed="14.15" pos="44.73" lane="-492264418_1" slope="0.00"/>
        <vehicle id="12.1" x="1607.37" y="1292.40" angle="73.53" type="Sport" speed="11.21" pos="4.66" lane="-504582668_1" slope="0.00"/>
        <vehicle id="12.2" x="1584.04" y="1288.48" angle="252.29" type="Sport" speed="0.77" pos="13.35" lane="49499523_1" slope="0.00"/>
        <vehicle id="12.3" x="1547.15" y="1273.33" angle="72.29" type="Sport" speed="7.82" pos="15.13" lane="-49499523_1" slope="0.00"/>
        <vehicle id="12.4" x="1572.97" y="1284.94" angle="252.28" type="Sport" speed="0.99" pos="24.97" lane="49499523_1" slope="0.00"/>
        <vehicle id="12.5" x="1535.90" y="1273.10" angle="252.29" type="Sport" speed="8.47" pos="63.89" lane="49499523_1" slope="0.00"/>
        <vehicle id="12.6" x="1563.16" y="1281.81" angle="252.28" type="Sport" speed="2.23" pos="35.27" lane="49499523_1" slope="0.00"/>
        <vehicle id="12.7" x="1584.86" y="1292.10" angle="252.28" type="Sport" speed="2.54" pos="11.46" lane="49499523_0" slope="0.00"/>
        <vehicle id="12.8" x="1594.73" y="1291.89" angle="252.29" type="Sport" speed="0.59" pos="2.14" lane="49499523_1" slope="0.00"/>
        <vehicle id="12.9" x="1594.73" y="1295.26" angle="252.28" type="Sport" speed="0.00" pos="1.10" lane="49499523_0" slope="0.00"/>
    </timestep>
    <timestep time="26.00">
        <vehicle id="12.0" x="1706.30" y="1321.80" angle="73.39" type="Sport" speed="14.70" pos="2.34" lane=":34459589_5_1" slope="0.00"/>
        <vehicle id="12.1" x="1618.81" y="1295.78" angle="73.53" type="Sport" speed="11.93" pos="16.59" lane="-504582668_1" slope="0.00"/>
        <vehicle id="12.2" x="1583.31" y="1288.24" angle="252.29" type="Sport" speed="0.77" pos="14.12" lane="49499523_1" slope="0.00"/>
        <vehicle id="12.3" x="1554.51" y="1275.68" angle="72.29" type="Sport" speed="7.72" pos="22.85" lane="-49499523_1" slope="0.00"/>
        <vehicle id="12.4" x="1572.35" y="1284.74" angle="252.28" type="Sport" speed="0.65" pos="25.62" lane="49499523_1" slope="0.00"/>
        <vehicle id="12.5" x="1532.59" y="1272.04" angle="252.29" type="Sport" speed="3.47" pos="67.36" lane="49499523_1" slope="0.00"/>
        <vehicle id="12.6" x="1559.76" y="1280.72" angle="252.29" type="Sport" speed="3.57" pos="38.84" lane="49499523_1" slope="0.00"/>
        <vehicle id="12.7" x="1580.15" y="1290.60" angle="252.28" type="Sport" speed="4.95" pos="16.41" lane="49499523_0" slope="0.00"/>
        <vehicle id="12.8" x="1593.69" y="1291.56" angle="252.29" type="Sport" speed="1.09" pos="3.22" lane="49499523_1" slope="0.00"/>
        <vehicle id="12.9" x="1593.86" y="1294.98" angle="252.28" type="Sport" speed="0.91" pos="2.01" lane="49499523_0" slope="0.00"/>
    </timestep>
    <timestep time="27.00">
        <vehicle id="12.0" x="1719.92" y="1325.86" angle="73.39" type="Sport" speed="14.21" pos="5.36" lane="-49515976_1" slope="0.00"/>
        <vehicle id="12.1" x="1631.31" y="1299.48" angle="73.53" type="Sport" speed="13.03" pos="29.62" lane="-504582668_1" slope="0.00"/>
        <vehicle id="12.2" x="1583.28" y="1288.24" angle="252.29" type="Sport" speed="0.03" pos="14.14" lane="49499523_1" slope="0.00"/>
        <vehicle id="12.3" x="1563.00" y="1278.39" angle="72.29" type="Sport" speed="8.91" pos="31.77" lane="-49499523_1" slope="0.00"/>
        <vehicle id="12.4" x="1571.73" y="1284.55" angle="252.28" type="Sport" speed="0.65" pos="26.27" lane="49499523_1" slope="0.00"/>
        <vehicle id="12.5" x="1530.76" y="1269.93" angle="196.72" type="Sport" speed="3.03" pos="2.17" lane=":2547038228_2_0" slope="0.00"/>
        <vehicle id="12.6" x="1556.16" y="1279.57" angle="252.29" type="Sport" speed="3.77" pos="42.61" lane="49499523_1" slope="0.00"/>
        <vehicle id="12.7" x="1572.67" y="1288.20" angle="252.28" type="Sport" speed="7.86" pos="24.27" lane="49499523_0" slope="0.00"/>
        <vehicle id="12.8" x="1592.73" y="1291.25" angle="252.29" type="Sport" speed="1.01" pos="4.23" lane="49499523_1" slope="0.00"/>
        <vehicle id="12.9" x="1592.89" y="1294.67" angle="252.28" type="Sport" speed="1.02" pos="3.03" lane="49499523_0" slope="0.00"/>
    </timestep>
    <timestep time="28.00">
        <vehicle id="12.0" x="1732.85" y="1329.72" angle="73.39" type="Sport" speed="13.49" pos="18.85" lane="-49515976_1" slope="0.00"/>
        <vehicle id="12.1" x="1643.24" y="1303.01" angle="73.49" type="Sport" speed="12.44" pos="4.86" lane=":560047_4_1" slope="0.00"/>
        <vehicle id="12.10" x="1594.73" y="1295.26" angle="252.28" type="Sport" speed="0.00" pos="1.10" lane="49499523_0" slope="0.00"/>
        <vehicle id="12.2" x="1582.45" y="1287.97" angle="252.29" type="Sport" speed="0.88" pos="15.02" lane="49499523_1" slope="0.00"/>
        <vehicle id="12.3" x="1571.69" y="1281.17" angle="72.28" type="Sport" speed="9.12" pos="40.88" lane="-49499523_1" slope="0.00"/>
        <vehicle id="12.4" x="1570.24" y="1284.07" angle="252.28" type="Sport" speed="1.57" pos="27.84" lane="49499523_1" slope="0.00"/>
        <vehicle id="12.5" x="1532.95" y="1268.80" angle="99.05" type="Sport" speed="2.72" pos="0.22" lane="-49499523_1" slope="0.00"/>
        <vehicle id="12.6" x="1553.35" y="1278.67" angle="252.29" type="Sport" speed="2.95" pos="45.57" lane="49499523_1" slope="0.00"/>
        <vehicle id="12.7" x="1567.03" y="1286.40" angle="252.28" type="Sport" speed="5.92" pos="30.18" lane="49499523_0" slope="0.00"/>
        <vehicle id="12.8" x="1591.90" y="1290.99" angle="252.29" type="Sport" speed="0.87" pos="5.10" lane="49499523_1" slope="0.00"/>
        <vehicle id="12.9" x="1590.36" y="1293.86" angle="252.28" type="Sport" speed="2.66" pos="5.69" lane="49499523_0" slope="0.00"/>
    </timestep>
    <timestep time="29.00">
        <vehicle id="12.0" x="1746.32" y="1333.74" angle="73.43" type="Sport" speed="14.05" pos="3.99" lane=":560042_4_1" slope="0.00"/>
        <vehicle id="12.1" x="1656.42" y="1303.59" angle="73.40" type="Sport" speed="12.80" pos="6.44" lane="-492264418_0" slope="0.00"/>
        <vehicle id="12.10" x="1594.52" y="1295.19" angle="252.28" type="Sport" speed="0.22" pos="1.32" lane="49499523_0" slope="0.00"/>
        <vehicle id="12.2" x="1581.61" y="1287.70" angle="252.29" type="Sport" speed="0.88" pos="15.90" lane="49499523_1" slope="0.00"/>
        <vehicle id="12.3" x="1581.56" y="1284.32" angle="72.25" type="Sport" speed="10.37" pos="51.25" lane="-49499523_1" slope="0.00"/>
        <vehicle id="12.4" x="1570.08" y="1284.02" angle="252.28" type="Sport" speed="0.16" pos="28.01" lane="49499523_1" slope="0.00"/>
        <vehicle id="12.5" x="1537.36" y="1270.21" angle="72.29" type="Sport" speed="4.64" pos="4.85" lane="-49499523_1" slope="0.00"/>
        <vehicle id="12.6" x="1548.00" y="1276.96" angle="252.29" type="Sport" speed="5.62" pos="51.18" lane="49499523_1" slope="0.00"/>
        <vehicle id="12.7" x="1563.25" y="1285.20" angle="252.28" type="Sport" speed="3.97" pos="34.15" lane="49499523_0" slope="0.00"/>
        <vehicle id="12.8" x="1590.91" y="1290.67" angle="252.29" type="Sport" speed="1.04" pos="6.14" lane="49499523_1" slope="0.00"/>
        <vehicle id="12.9" x="1587.27" y="1292.87" angle="252.28" type="Sport" speed="3.25" pos="8.93" lane="49499523_0" slope="0.00"/>
    </timestep>
    <timestep time="30.00">
        <vehicle id="12.0" x="1760.30" y="1337.89" angle="73.49" type="Sport" speed="14.58" pos="7.69" lane="-43210309_1" slope="0.00"/>
        <vehicle id="12.1" x="1668.75" y="1307.26" angle="73.40" type="Sport" speed="12.86" pos="19.30" lane="-492264418_0" slope="0.00"/>
        <vehicle id="12.10" x="1593.83" y="1294.97" angle="252.28" type="Sport" speed="0.73" pos="2.05" lane="49499523_0" slope="0.00"/>
        <vehicle id="12.2" x="1580.77" y="1287.43" angle="252.29" type="Sport" speed="0.88" pos="16.78" lane="49499523_1" slope="0.00"/>
        <vehicle id="12.3" x="1593.97" y="1288.30" angle="72.25" type="Sport" speed="13.03" pos="64.28" lane="-49499523_1" slope="0.00"/>
        <vehicle id="12.4" x="1569.53" y="1283.84" angle="252.28" type="Sport" speed="0.58" pos="28.58" lane="49499523_1" slope="0.00"/>
        <vehicle id="12.5" x="1543.60" y="1272.20" angle="72.29" type="Sport" speed="6.55" pos="11.40" lane="-49499523_1" slope="0.00"/>