<?xml version="1.0" encoding="UTF-8"?>

<!-- generated on 08/30/19 12:55:44 by Eclipse SUMO Version 1.2.0
<configuration xmlns:xsi="http://www.w3.org/2001/XMLSchema-instance" xsi:noNamespaceSchemaLocation="http://sumo.dlr.de/xsd/sumoConfiguration.xsd">

    <input>
        <net-file value="mapNetconvert.net.xml"/>
        <route-files value="C:\Users\darkm\Documents\Mogen\models\flow\routes.rou.xml"/>
        <additional-files value="C:\Users\darkm\Documents\Mogen\vehicles.add.xml"/>
    </input>

    <output>
        <fcd-output value="C:\Users\darkm\Documents\Mogen\models\flow\mapNetconvert.fcd"/>
    </output>

</configuration>
-->

<fcd-export xmlns:xsi="http://www.w3.org/2001/XMLSchema-instance" xsi:noNamespaceSchemaLocation="http://sumo.dlr.de/xsd/fcd_file.xsd">
    <timestep time="0.00"/>
    <timestep time="1.00"/>
    <timestep time="2.00"/>
    <timestep time="3.00"/>
    <timestep time="4.00"/>
    <timestep time="5.00"/>
    <timestep time="6.00">
        <vehicle id="56.0" x="357.70" y="337.92" angle="296.57" type="Car" speed="0.00" pos="1.10" lane="47368026#2_0" slope="0.00"/>
    </timestep>
    <timestep time="7.00">
        <vehicle id="56.0" x="355.26" y="339.14" angle="296.57" type="Car" speed="2.72" pos="3.82" lane="47368026#2_0" slope="0.00"/>
        <vehicle id="56.1" x="357.70" y="337.92" angle="296.57" type="Car" speed="0.00" pos="1.10" lane="47368026#2_0" slope="0.00"/>
    </timestep>
    <timestep time="8.00">
        <vehicle id="56.0" x="351.42" y="341.06" angle="296.57" type="Car" speed="4.30" pos="8.12" lane="47368026#2_0" slope="0.00"/>
        <vehicle id="56.1" x="357.64" y="337.95" angle="296.57" type="Car" speed="0.06" pos="1.16" lane="47368026#2_0" slope="0.00"/>
    </timestep>
    <timestep time="9.00">
        <vehicle id="56.0" x="345.79" y="343.88" angle="296.57" type="Car" speed="6.29" pos="14.41" lane="47368026#2_0" slope="0.00"/>
        <vehicle id="56.1" x="357.22" y="338.16" angle="296.57" type="Car" speed="0.47" pos="1.64" lane="47368026#2_0" slope="0.00"/>
    </timestep>
    <timestep time="10.00">
        <vehicle id="56.0" x="337.82" y="347.86" angle="296.57" type="Car" speed="8.91" pos="23.32" lane="47368026#2_0" slope="0.00"/>
        <vehicle id="56.1" x="356.00" y="338.77" angle="296.57" type="Car" speed="1.36" pos="3.00" lane="47368026#2_0" slope="0.00"/>
    </timestep>
    <timestep time="11.00">
        <vehicle id="56.0" x="327.46" y="353.04" angle="296.57" type="Car" speed="11.58" pos="34.91" lane="47368026#2_0" slope="0.00"/>
        <vehicle id="56.1" x="353.32" y="340.11" angle="296.57" type="Car" speed="3.00" pos="6.00" lane="47368026#2_0" slope="0.00"/>
        <vehicle id="56.2" x="357.70" y="337.92" angle="296.57" type="Car" speed="0.00" pos="1.10" lane="47368026#2_0" slope="0.00"/>
    </timestep>
    <timestep time="12.00">
        <vehicle id="56.0" x="315.06" y="359.25" angle="296.57" type="Car" speed="13.87" pos="48.77" lane="47368026#2_0" slope="0.00"/>
        <vehicle id="56.1" x="350.18" y="341.68" angle="296.57" type="Car" speed="3.51" pos="9.51" lane="47368026#2_0" slope="0.00"/>
        <vehicle id="56.2" x="357.47" y="338.03" angle="296.57" type="Car" speed="0.25" pos="1.35" lane="47368026#2_0" slope="0.00"/>
    </timestep>
    <timestep time="13.00">
        <vehicle id="56.0" x="302.03" y="365.76" angle="296.57" type="Car" speed="14.57" pos="63.35" lane="47368026#2_0" slope="0.00"/>
        <vehicle id="56.1" x="344.97" y="344.29" angle="296.57" type="Car" speed="5.82" pos="15.33" lane="47368026#2_0" slope="0.00"/>
        <vehicle id="56.2" x="356.69" y="338.43" angle="296.57" type="Car" speed="0.87" pos="2.23" lane="47368026#2_0" slope="0.00"/>
    </timestep>
    <timestep time="14.00">
        <vehicle id="56.0" x="290.02" y="371.77" angle="296.57" type="Car" speed="13.43" pos="76.77" lane="47368026#2_0" slope="0.00"/>
        <vehicle id="56.1" x="338.62" y="347.46" angle="296.57" type="Car" speed="7.10" pos="22.43" lane="47368026#2_0" slope="0.00"/>
        <vehicle id="56.2" x="355.77" y="338.89" angle="296.57" type="Car" speed="1.03" pos="3.26" lane="47368026#2_0" slope="0.00"/>
        <vehicle id="56.3" x="357.70" y="337.92" angle="296.57" type="Car" speed="0.00" pos="1.10" lane="47368026#2_0" slope="0.00"/>
    </timestep>
    <timestep time="15.00">
        <vehicle id="56.0" x="279.63" y="376.96" angle="296.57" type="Car" speed="11.61" pos="88.39" lane="47368026#2_0" slope="0.00"/>
        <vehicle id="56.1" x="332.05" y="350.75" angle="296.57" type="Car" speed="7.34" pos="29.77" lane="47368026#2_0" slope="0.00"/>
        <vehicle id="56.2" x="353.60" y="339.97" angle="296.57" type="Car" speed="2.42" pos="5.68" lane="47368026#2_0" slope="0.00"/>
        <vehicle id="56.3" x="357.68" y="337.93" angle="296.57" type="Car" speed="0.02" pos="1.12" lane="47368026#2_0" slope="0.00"/>
    </timestep>
    <timestep time="16.00">
        <vehicle id="56.0" x="272.88" y="381.12" angle="305.16" type="Car" speed="7.95" pos="96.34" lane="47368026#2_0" slope="0.00"/>
        <vehicle id="56.1" x="324.85" y="354.35" angle="296.57" type="Car" speed="8.06" pos="37.83" lane="47368026#2_0" slope="0.00"/>
        <vehicle id="56.2" x="350.99" y="341.27" angle="296.57" type="Car" speed="2.92" pos="8.60" lane="47368026#2_0" slope="0.00"/>
        <vehicle id="56.3" x="357.36" y="338.09" angle="296.57" type="Car" speed="0.36" pos="1.48" lane="47368026#2_0" slope="0.00"/>
    </timestep>
    <timestep time="17.00">
        <vehicle id="56.0" x="266.90" y="386.34" angle="324.85" type="Car" speed="8.01" pos="4.10" lane=":603045559_0_0" slope="0.00"/>
        <vehicle id="56.1" x="318.40" y="357.57" angle="296.57" type="Car" speed="7.20" pos="45.03" lane="47368026#2_0" slope="0.00"/>
        <vehicle id="56.2" x="348.04" y="342.75" angle="296.57" type="Car" speed="3.30" pos="11.90" lane="47368026#2_0" slope="0.00"/>
        <vehicle id="56.3" x="356.96" y="338.29" angle="296.57" type="Car" speed="0.45" pos="1.92" lane="47368026#2_0" slope="0.00"/>
    </timestep>
    <timestep time="18.00">
        <vehicle id="56.0" x="265.00" y="393.37" angle="324.86" type="Car" speed="7.59" pos="3.33" lane="47360626#6_0" slope="0.00"/>
        <vehicle id="56.1" x="309.52" y="362.02" angle="296.57" type="Car" speed="9.93" pos="54.97" lane="47368026#2_0" slope="0.00"/>
        <vehicle id="56.2" x="343.84" y="344.85" angle="296.57" type="Car" speed="4.70" pos="16.60" lane="47368026#2_0" slope="0.00"/>
        <vehicle id="56.3" x="356.23" y="338.66" angle="296.57" type="Car" speed="0.82" pos="2.74" lane="47368026#2_0" slope="0.00"/>
    </timestep>
    <timestep time="19.00">
        <vehicle id="56.0" x="258.24" y="397.91" angle="285.82" type="Car" speed="8.52" pos="1.16" lane="47360626#1_0" slope="0.00"/>
        <vehicle id="56.1" x="298.36" y="367.60" angle="296.57" type="Car" speed="12.48" pos="67.44" lane="47368026#2_0" slope="0.00"/>
        <vehicle id="56.2" x="339.92" y="346.81" angle="296.57" type="Car" speed="4.38" pos="20.98" lane="47368026#2_0" slope="0.00"/>
        <vehicle id="56.3" x="354.98" y="339.28" angle="296.57" type="Car" speed="1.39" pos="4.13" lane="47368026#2_0" slope="0.00"/>
        <vehicle id="56.4" x="357.70" y="337.92" angle="296.57" type="Car" speed="0.00" pos="1.10" lane="47368026#2_0" slope="0.00"/>
    </timestep>
    <timestep time="20.00">
        <vehicle id="56.0" x="251.25" y="396.24" angle="239.38" type="Car" speed="7.53" pos="1.27" lane=":603045562_1_0" slope="0.00"/>
        <vehicle id="56.1" x="287.34" y="373.11" angle="296.57" type="Car" speed="12.33" pos="79.77" lane="47368026#2_0" slope="0.00"/>
        <vehicle id="56.2" x="334.14" y="349.70" angle="296.57" type="Car" speed="6.47" pos="27.44" lane="47368026#2_0" slope="0.00"/>
        <vehicle id="56.3" x="353.13" y="340.21" angle="296.57" type="Car" speed="2.08" pos="6.21" lane="47368026#2_0" slope="0.00"/>
        <vehicle id="56.4" x="357.59" y="337.97" angle="296.57" type="Car" speed="0.11" pos="1.21" lane="47368026#2_0" slope="0.00"/>
    </timestep>
    <timestep time="21.00">
        <vehicle id="56.0" x="248.25" y="390.31" angle="182.30" type="Car" speed="7.07" pos="8.34" lane=":603045562_1_0" slope="0.00"/>
        <vehicle id="56.1" x="277.09" y="378.24" angle="296.57" type="Car" speed="11.46" pos="91.23" lane="47368026#2_0" slope="0.00"/>
        <vehicle id="56.2" x="326.92" y="353.31" angle="296.57" type="Car" speed="8.07" pos="35.51" lane="47368026#2_0" slope="0.00"/>
        <vehicle id="56.3" x="350.83" y="341.36" angle="296.57" type="Car" speed="2.57" pos="8.78" lane="47368026#2_0" slope="0.00"/>
        <vehicle id="56.4" x="357.22" y="338.16" angle="296.57" type="Car" speed="0.41" pos="1.63" lane="47368026#2_0" slope="0.00"/>
    </timestep>
    <timestep time="22.00">
        <vehicle id="56.0" x="250.30" y="383.40" angle="147.90" type="Car" speed="7.43" pos="0.27" lane=":603045533_1_0" slope="0.00"/>
        <vehicle id="56.1" x="271.77" y="381.90" angle="305.16" type="Car" speed="6.46" pos="97.70" lane="47368026#2_0" slope="0.00"/>
        <vehicle id="56.2" x="319.70" y="356.92" angle="296.57" type="Car" speed="8.07" pos="43.58" lane="47368026#2_0" slope="0.00"/>
        <vehicle id="56.3" x="347.72" y="342.91" angle="296.57" type="Car" speed="3.48" pos="12.26" lane="47368026#2_0" slope="0.00"/>
        <vehicle id="56.4" x="356.89" y="338.32" angle="296.57" type="Car" speed="0.37" pos="2.00" lane="47368026#2_0" slope="0.00"/>
    </timestep>
    <timestep time="23.00">
        <vehicle id="56.0" x="248.94" y="375.52" angle="196.95" type="Car" speed="8.10" pos="0.91" lane="-47425124#2_0" slope="0.00"/>
        <vehicle id="56.1" x="267.47" y="385.53" angle="321.57" type="Car" speed="5.66" pos="3.10" lane=":603045559_0_0" slope="0.00"/>
        <vehicle id="56.2" x="313.81" y="359.87" angle="296.57" type="Car" speed="6.59" pos="50.17" lane="47368026#2_0" slope="0.00"/>
        <vehicle id="56.3" x="344.04" y="344.75" angle="296.57" type="Car" speed="4.11" pos="16.37" lane="47368026#2_0" slope="0.00"/>
        <vehicle id="56.4" x="356.20" y="338.67" angle="296.57" type="Car" speed="0.77" pos="2.77" lane="47368026#2_0" slope="0.00"/>
    </timestep>
    <timestep time="24.00">
        <vehicle id="56.0" x="245.70" y="364.96" angle="197.08" type="Car" speed="11.05" pos="11.96" lane="-47425124#2_0" slope="0.00"/>
        <vehicle id="56.1" x="266.15" y="391.10" angle="4.47" type="Car" speed="5.92" pos="0.67" lane="47360626#6_0" slope="0.00"/>
        <vehicle id="56.2" x="306.04" y="363.76" angle="296.57" type="Car" speed="8.70" pos="58.86" lane="47368026#2_0" slope="0.00"/>
        <vehicle id="56.3" x="341.01" y="346.27" angle="296.57" type="Car" speed="3.39" pos="19.76" lane="47368026#2_0" slope="0.00"/>
        <vehicle id="56.4" x="354.83" y="339.35" angle="296.57" type="Car" speed="1.53" pos="4.30" lane="47368026#2_0" slope="0.00"/>
        <vehicle id="56.5" x="357.70" y="337.92" angle="296.57" type="Car" speed="0.00" pos="1.10" lane="47368026#2_0" slope="0.00"/>
    </timestep>
    <timestep time="25.00">
        <vehicle id="56.0" x="241.59" y="351.61" angle="197.10" type="Car" speed="13.97" pos="25.92" lane="-47425124#2_0" slope="0.00"/>
        <vehicle id="56.1" x="262.65" y="396.34" angle="315.95" type="Car" speed="6.46" pos="1.88" lane=":603046228_1_0" slope="0.00"/>
        <vehicle id="56.2" x="295.90" y="368.83" angle="296.57" type="Car" speed="11.33" pos="70.20" lane="47368026#2_0" slope="0.00"/>
        <vehicle id="56.3" x="336.25" y="348.65" angle="296.57" type="Car" speed="5.32" pos="25.08" lane="47368026#2_0" slope="0.00"/>
        <vehicle id="56.4" x="353.47" y="340.04" angle="296.57" type="Car" speed="1.53" pos="5.83" lane="47368026#2_0" slope="0.00"/>
        <vehicle id="56.5" x="357.55" y="338.00" angle="296.57" type="Car" speed="0.17" pos="1.27" lane="47368026#2_0" slope="0.00"/>
    </timestep>
    <timestep time="26.00">
        <vehicle id="56.0" x="237.47" y="338.21" angle="197.10" type="Car" speed="14.02" pos="39.95" lane="-47425124#2_0" slope="0.00"/>
        <vehicle id="56.1" x="256.29" y="398.32" angle="279.83" type="Car" speed="6.71" pos="1.29" lane=":4560069065_1_0" slope="0.00"/>
        <vehicle id="56.2" x="284.62" y="374.47" angle="296.57" type="Car" speed="12.62" pos="82.81" lane="47368026#2_0" slope="0.00"/>
        <vehicle id="56.3" x="331.32" y="351.12" angle="296.57" type="Car" speed="5.52" pos="30.60" lane="47368026#2_0" slope="0.00"/>
        <vehicle id="56.4" x="351.31" y="341.11" angle="296.57" type="Car" speed="2.41" pos="8.24" lane="47368026#2_0" slope="0.00"/>
        <vehicle id="56.5" x="357.28" y="338.13" angle="296.57" type="Car" speed="0.30" pos="1.57" lane="47368026#2_0" slope="0.00"/>
    </timestep>
    <timestep time="27.00">
        <vehicle id="56.0" x="233.29" y="324.60" angle="197.10" type="Car" speed="14.24" pos="54.19" lane="-47425124#2_0" slope="0.00"/>
        <vehicle id="56.1" x="251.37" y="396.31" angle="239.38" type="Car" speed="5.40" pos="1.13" lane=":603045562_1_0" slope="0.00"/>
        <vehicle id="56.2" x="275.51" y="379.26" angle="305.16" type="Car" speed="10.31" pos="93.12" lane="47368026#2_0" slope="0.00"/>
        <vehicle id="56.3" x="324.62" y="354.46" angle="296.57" type="Car" speed="7.49" pos="38.08" lane="47368026#2_0" slope="0.00"/>
        <vehicle id="56.4" x="349.38" y="342.08" angle="296.57" type="Car" speed="2.16" pos="10.40" lane="47368026#2_0" slope="0.00"/>
        <vehicle id="56.5" x="356.91" y="338.31" angle="296.57" type="Car" speed="0.41" pos="1.98" lane="47368026#2_0" slope="0.00"/>
    </timestep>
    <timestep time="28.00">
        <vehicle id="56.0" x="229.02" y="310.74" angle="197.10" type="Car" speed="14.50" pos="10.90" lane=":5749982904_1_0" slope="0.00"/>
        <vehicle id="56.1" x="248.30" y="391.66" angle="188.19" type="Car" speed="5.85" pos="6.99" lane=":603045562_1_0" slope="0.00"/>
        <vehicle id="56.2" x="271.16" y="382.33" angle="305.16" type="Car" speed="5.33" pos="98.45" lane="47368026#2_0" slope="0.00"/>
        <vehicle id="56.3" x="318.24" y="357.65" angle="296.57" type="Car" speed="7.13" pos="45.22" lane="47368026#2_0" slope="0.00"/>
        <vehicle id="56.4" x="346.28" y="343.63" angle="296.57" type="Car" speed="3.47" pos="13.87" lane="47368026#2_0" slope="0.00"/>
        <vehicle id="56.5" x="356.41" y="338.56" angle="296.57" type="Car" speed="0.56" pos="2.54" lane="47368026#2_0" slope="0.00"/>
    </timestep>
    <timestep time="29.00">
        <vehicle id="56.0" x="224.89" y="297.31" angle="197.09" type="Car" speed="14.05" pos="13.46" lane="-47425124#1_0" slope="0.00"/>
        <vehicle id="56.1" x="248.89" y="385.56" angle="158.77" type="Car" speed="6.18" pos="4.25" lane=":603045554_2_0" slope="0.00"/>
        <vehicle id="56.2" x="267.86" y="384.97" angle="312.10" type="Car" speed="4.24" pos="2.43" lane=":603045559_0_0" slope="0.00"/>
        <vehicle id="56.3" x="312.88" y="360.34" angle="296.57" type="Car" speed="6.00" pos="51.21" lane="47368026#2_0" slope="0.00"/>
        <vehicle id="56.4" x="343.36" y="345.09" angle="296.57" type="Car" speed="3.27" pos="17.13" lane="47368026#2_0" slope="0.00"/>
        <vehicle id="56.5" x="355.31" y="339.11" angle="296.57" type="Car" speed="1.23" pos="3.76" lane="47368026#2_0" slope="0.00"/>
        <vehicle id="56.6" x="357.70" y="337.92" angle="296.57" type="Car" speed="0.00" pos="1.10" lane="47368026#2_0" slope="0.00"/>
    </timestep>
    <timestep time="30.00">
        <vehicle id="56.0" x="220.98" y="284.59" angle="197.09" type="Car" speed="13.31" pos="26.77" lane="-47425124#1_0" slope="0.00"/>
        <vehicle id="56.1" x="249.98" y="379.15" angle="191.50" type="Car" speed="6.92" pos="4.60" lane=":603045533_1_0" slope="0.00"/>
        <vehicle id="56.2" x="266.08" y="389.64" angle="359.14" type="Car" speed="5.13" pos="7.56" lane=":603045559_0_0" slope="0.00"/>
        <vehicle id="56.3" x="305.39" y="364.08" angle="296.57" type="Car" speed="8.37" pos="59.59" lane="47368026#2_0" slope="0.00"/>
        <vehicle id="56.4" x="339.15" y="347.20" angle="296.57" type="Car" speed="4.70" pos="21.84" lane="47368026#2_0" slope="0.00"/>
        <vehicle id="56.5" x="354.35" y="339.60" angle="296.57" type="Car" speed="1.08" pos="4.84" lane="47368026#2_0" slope="0.00"/>
        <vehicle id="56.6" x="357.65" y="337.95" angle="296.57" type="Car" speed="0.05" pos="1.15" lane="47368026#2_0" slope="0.00"/>
    </timestep>
    <timestep time="31.00">
        <vehicle id="56.0" x="217.08" y="271.92" angle="197.13" type="Car" speed="13.26" pos="7.47" lane=":603045531_1_0" slope="0.00"/>
        <vehicle id="56.1" x="248.06" y="372.66" angle="197.08" type="Car" speed="6.77" pos="3.91" lane="-47425124#2_0" slope="0.00"/>
        <vehicle id="56.2" x="264.79" y="393.67" angle="324.86" type="Car" speed="4.48" pos="3.68" lane="47360626#6_0" slope="0.00"/>
        <vehicle id="56.3" x="296.31" y="368.62" angle="296.57" type="Car" speed="10.15" pos="69.74" lane="47368026#2_0" slope="0.00"/>
        <vehicle id="56.4" x="335.15" y="349.20" angle="296.57" type="Car" speed="4.48" pos="26.31" lane="47368026#2_0" slope="0.00"/>
        <vehicle id="56.5" x="352.65" y="340.44" angle="296.57" type="Car" speed="1.90" pos="6.74" lane="47368026#2_0" slope="0.00"/>
        <vehicle id="56.6" x="357.47" y="338.03" angle="296.57" type="Car" speed="0.19" pos="1.35" lane="47368026#2_0" slope="0.00"/>
    </timestep>
    <timestep time="32.00">
        <vehicle id="56.0" x="213.13" y="259.14" angle="197.21" type="Car" speed="13.38" pos="9.78" lane="-47425124#0_0" slope="0.00"/>
        <vehicle id="56.1" x="245.39" y="363.97" angle="197.08" type="Car" speed="9.09" pos="13.00" lane="-47425124#2_0" slope="0.00"/>
        <vehicle id="56.2" x="260.75" y="397.22" angle="288.24" type="Car" speed="5.56" pos="3.99" lane=":603046228_1_0" slope="0.00"/>
        <vehicle id="56.3" x="285.47" y="374.04" angle="296.57" type="Car" speed="12.12" pos="81.86" lane="47368026#2_0" slope="0.00"/>
        <vehicle id="56.4" x="330.18" y="351.68" angle="296.57" type="Car" speed="5.55" pos="31.87" lane="47368026#2_0" slope="0.00"/>
        <vehicle id="56.5" x="350.51" y="341.51" angle="296.57" type="Car" speed="2.39" pos="9.13" lane="47368026#2_0" slope="0.00"/>
        <vehicle id="56.6" x="357.13" y="338.21" angle="296.57" type="Car" speed="0.39" pos="1.74" lane="47368026#2_0" slope="0.00"/>
    </timestep>
    <timestep time="33.00">
        <vehicle id="56.0" x="208.98" y="245.75" angle="197.21" type="Car" speed="14.01" pos="23.79" lane="-47425124#0_0" slope="0.00"/>
        <vehicle id="56.1" x="241.92" y="352.69" angle="197.10" type="Car" speed="11.81" pos="24.80" lane="-47425124#2_0" slope="0.00"/>
        <vehicle id="56.2" x="255.06" y="398.19" angle="260.36" type="Car" speed="5.85" pos="2.54" lane=":4560069065_1_0" slope="0.00"/>
        <vehicle id="56.3" x="276.70" y="378.43" angle="296.57" type="Car" speed="9.80" pos="91.66" lane="47368026#2_0" slope="0.00"/>
        <vehicle id="56.4" x="324.12" y="354.72" angle="296.57" type="Car" speed="6.78" pos="38.65" lane="47368026#2_0" slope="0.00"/>
        <vehicle id="56.5" x="348.40" y="342.57" angle="296.57" type="Car" speed="2.37" pos="11.50" lane="47368026#2_0" slope="0.00"/>
        <vehicle id="56.6" x="356.74" y="338.40" angle="296.57" type="Car" speed="0.43" pos="2.17" lane="47368026#2_0" slope="0.00"/>
    </timestep>
    <timestep time="34.00">
        <vehicle id="56.0" x="204.76" y="232.12" angle="197.21" type="Car" speed="14.27" pos="38.06" lane="-47425124#0_0" slope="0.00"/>
        <vehicle id="56.1" x="238.17" y="340.49" angle="197.10" type="Car" speed="12.76" pos="37.56" lane="-47425124#2_0" slope="0.00"/>
        <vehicle id="56.2" x="249.08" y="394.25" angle="221.40" type="Car" speed="7.26" pos="4.25" lane=":603045562_1_0" slope="0.00"/>
        <vehicle id="56.3" x="271.98" y="381.75" angle="305.16" type="Car" speed="5.77" pos="97.44" lane="47368026#2_0" slope="0.00"/>
        <vehicle id="56.4" x="317.69" y="357.93" angle="296.57" type="Car" speed="7.19" pos="45.84" lane="47368026#2_0" slope="0.00"/>
        <vehicle id="56.5" x="345.61" y="343.96" angle="296.57" type="Car" speed="3.11" pos="14.61" lane="47368026#2_0" slope="0.00"/>
        <vehicle id="56.6" x="356.22" y="338.66" angle="296.57" type="Car" speed="0.58" pos="2.75" lane="47368026#2_0" slope="0.00"/>
    </timestep>
    <timestep time="35.00">
        <vehicle id="56.0" x="200.84" y="219.46" angle="197.21" type="Car" speed="13.26" pos="51.32" lane="-47425124#0_0" slope="0.00"/>
        <vehicle id="56.1" x="234.47" y="328.46" angle="197.10" type="Car" speed="12.59" pos="50.15" lane="-47425124#2_0" slope="0.00"/>
        <vehicle id="56.2" x="248.44" y="387.29" angle="175.32" type="Car" speed="7.12" pos="2.44" lane=":603045554_2_0" slope="0.00"/>
        <vehicle id="56.3" x="268.16" y="384.68" angle="310.84" type="Car" speed="4.82" pos="2.01" lane=":603045559_0_0" slope="0.00"/>
        <vehicle id="56.4" x="312.37" y="360.59" angle="296.57" type="Car" speed="5.94" pos="51.78" lane="47368026#2_0" slope="0.00"/>
        <vehicle id="56.5" x="341.72" y="345.91" angle="296.57" type="Car" speed="4.35" pos="18.96" lane="47368026#2_0" slope="0.00"/>
        <vehicle id="56.6" x="354.99" y="339.27" angle="296.57" type="Car" speed="1.38" pos="4.12" lane="47368026#2_0" slope="0.00"/>
        <vehicle id="56.7" x="357.70" y="337.92" angle="296.57" type="Car" speed="0.00" pos="1.10" lane="47368026#2_0" slope="0.00"/>
    </timestep>
    <timestep time="36.00">
        <vehicle id="56.0" x="197.48" y="208.62" angle="197.21" type="Car" speed="11.35" pos="62.67" lane="-47425124#0_0" slope="0.00"/>
        <vehicle id="56.1" x="230.76" y="316.40" angle="197.10" type="Car" speed="12.61" pos="4.98" lane=":5749982904_1_0" slope="0.00"/>
        <vehicle id="56.2" x="250.42" y="381.39" angle="182.69" type="Car" speed="6.44" pos="2.32" lane=":603045533_1_0" slope="0.00"/>
        <vehicle id="56.3" x="266.29" y="387.88" angle="341.47" type="Car" speed="3.76" pos="5.77" lane=":603045559_0_0" slope="0.00"/>
        <vehicle id="56.4" x="305.43" y="364.06" angle="296.57" type="Car" speed="7.77" pos="59.55" lane="47368026#2_0" slope="0.00"/>
        <vehicle id="56.5" x="338.25" y="347.65" angle="296.57" type="Car" speed="3.89" pos="22.85" lane="47368026#2_0" slope="0.00"/>
        <vehicle id="56.6" x="353.46" y="340.04" angle="296.57" type="Car" speed="1.72" pos="5.84" lane="47368026#2_0" slope="0.00"/>
        <vehicle id="56.7" x="357.62" y="337.96" angle="296.57" type="Car" speed="0.09" pos="1.19" lane="47368026#2_0" slope="0.00"/>
    </timestep>
    <timestep time="37.00">
        <vehicle id="56.0" x="195.59" y="202.52" angle="197.21" type="Car" speed="6.38" pos="69.05" lane="-47425124#0_0" slope="0.00"/>
        <vehicle id="56.1" x="227.19" y="304.80" angle="197.09" type="Car" speed="12.14" pos="5.63" lane="-47425124#1_0" slope="0.00"/>
        <vehicle id="56.2" x="248.50" y="374.08" angle="197.08" type="Car" speed="7.57" pos="2.41" lane="-47425124#2_0" slope="0.00"/>
        <vehicle id="56.3" x="265.93" y="392.06" angle="345.68" type="Car" speed="4.31" pos="1.71" lane="47360626#6_0" slope="0.00"/>
        <vehicle id="56.4" x="296.30" y="368.63" angle="296.57" type="Car" speed="10.20" pos="69.75" lane="47368026#2_0" slope="0.00"/>
        <vehicle id="56.5" x="333.60" y="349.97" angle="296.57" type="Car" speed="5.19" pos="28.04" lane="47368026#2_0" slope="0.00"/>
        <vehicle id="56.6" x="352.15" y="340.70" angle="296.57" type="Car" speed="1.46" pos="7.30" lane="47368026#2_0" slope="0.00"/>
        <vehicle id="56.7" x="357.37" y="338.09" angle="296.57" type="Car" speed="0.28" pos="1.47" lane="47368026#2_0" slope="0.00"/>
    </timestep>
    <timestep time="38.00">
        <vehicle id="56.0" x="192.92" y="194.05" angle="197.72" type="Car" speed="8.88" pos="4.72" lane=":603642830_1_0" slope="0.00"/>
        <vehicle id="56.1" x="223.38" y="292.40" angle="197.09" type="Car" speed="12.97" pos="18.60" lane="-47425124#1_0" slope="0.00"/>
        <vehicle id="56.2" x="245.55" y="364.46" angle="197.08" type="Car" speed="10.07" pos="12.48" lane="-47425124#2_0" slope="0.00"/>
        <vehicle id="56.3" x="262.80" y="396.23" angle="318.79" type="Car" speed="5.23" pos="1.69" lane=":603046228_1_0" slope="0.00"/>
        <vehicle id="56.4" x="285.05" y="374.25" angle="296.57" type="Car" speed="12.58" pos="82.33" lane="47368026#2_0" slope="0.00"/>
        <vehicle id="56.5" x="329.25" y="352.15" angle="296.57" type="Car" speed="4.87" pos="32.91" lane="47368026#2_0" slope="0.00"/>
        <vehicle id="56.6" x="350.86" y="341.34" angle="296.57" type="Car" speed="1.44" pos="8.74" lane="47368026#2_0" slope="0.00"/>
        <vehicle id="56.7" x="356.97" y="338.29" angle="296.57" type="Car" speed="0.45" pos="1.92" lane="47368026#2_0" slope="0.00"/>
    </timestep>
    <timestep time="39.00">
        <vehicle id="56.0" x="189.67" y="183.91" angle="198.18" type="Car" speed="10.65" pos="0.92" lane="47360621_0" slope="0.00"/>
        <vehicle id="56.1" x="219.61" y="280.14" angle="197.09" type="Car" speed="12.83" pos="31.43" lane="-47425124#1_0" slope="0.00"/>
        <vehicle id="56.2" x="242.43" y="354.33" angle="197.10" type="Car" speed="10.61" pos="23.09" lane="-47425124#2_0" slope="0.00"/>
        <vehicle id="56.3" x="257.43" y="398.12" angle="285.05" type="Car" speed="5.74" pos="0.13" lane=":4560069065_1_0" slope="0.00"/>
        <vehicle id="56.4" x="275.53" y="379.25" angle="305.16" type="Car" speed="10.77" pos="93.10" lane="47368026#2_0" slope="0.00"/>
        <vehicle id="56.5" x="322.76" y="355.40" angle="296.57" type="Car" speed="7.26" pos="40.17" lane="47368026#2_0" slope="0.00"/>
        <vehicle id="56.6" x="348.33" y="342.61" angle="296.57" type="Car" speed="2.83" pos="11.58" lane="47368026#2_0" slope="0.00"/>
        <vehicle id="56.7" x="356.62" y="338.46" angle="296.57" type="Car" speed="0.38" pos="2.30" lane="47368026#2_0" slope="0.00"/>
    </timestep>
    <timestep time="40.00">
        <vehicle id="56.0" x="185.85" y="172.31" angle="198.22" type="Car" speed="12.21" pos="13.13" lane="47360621_0" slope="0.00"/>
        <vehicle id="56.1" x="216.08" y="268.69" angle="197.13" type="Car" speed="11.98" pos="10.85" lane=":603045531_1_0" slope="0.00"/>
        <vehicle id="56.2" x="239.49" y="344.79" angle="197.10" type="Car" speed="9.98" pos="33.07" lane="-47425124#2_0" slope="0.00"/>
        <vehicle id="56.3" x="250.91" y="396.04" angle="239.38" type="Car" speed="7.09" pos="1.66" lane=":603045562_1_0" slope="0.00"/>
        <vehicle id="56.4" x="270.81" y="382.57" angle="305.16" type="Car" speed="5.77" pos="98.86" lane="47368026#2_0" slope="0.00"/>
        <vehicle id="56.5" x="315.87" y="358.84" angle="296.57" type="Car" speed="7.70" pos="47.87" lane="47368026#2_0" slope="0.00"/>
        <vehicle id="56.6" x="345.68" y="343.93" angle="296.57" type="Car" speed="2.96" pos="14.54" lane="47368026#2_0" slope="0.00"/>
        <vehicle id="56.7" x="356.15" y="338.69" angle="296.57" type="Car" speed="0.52" pos="2.83" lane="47368026#2_0" slope="0.00"/>
    </timestep>
    <timestep time="41.00">
        <vehicle id="56.0" x="181.64" y="159.52" angle="198.22" type="Car" speed="13.46" pos="26.59" lane="47360621_0" slope="0.00"/>
        <vehicle id="56.1" x="212.60" y="257.45" angle="197.21" type="Car" speed="11.76" pos="11.55" lane="-47425124#0_0" slope="0.00"/>
        <vehicle id="56.2" x="236.34" y="334.52" angle="197.10" type="Car" speed="10.74" pos="43.81" lane="-47425124#2_0" slope="0.00"/>
        <vehicle id="56.3" x="248.30" y="389.31" angle="177.24" type="Car" speed="7.68" pos="0.42" lane=":603045554_2_0" slope="0.00"/>
        <vehicle id="56.4" x="267.94" y="384.88" angle="310.84" type="Car" speed="3.69" pos="2.30" lane=":603045559_0_0" slope="0.00"/>
        <vehicle id="56.5" x="310.45" y="361.55" angle="296.57" type="Car" speed="6.06" pos="53.93" lane="47368026#2_0" slope="0.00"/>
        <vehicle id="56.6" x="341.78" y="345.88" angle="296.57" type="Car" speed="4.36" pos="18.89" lane="47368026#2_0" slope="0.00"/>
        <vehicle id="56.7" x="355.35" y="339.09" angle="296.57" type="Car" speed="0.90" pos="3.72" lane="47368026#2_0" slope="0.00"/>
        <vehicle id="56.8" x="357.70" y="337.92" angle="296.57" type="Car" speed="0.00" pos="1.10" lane="47368026#2_0" slope="0.00"/>
    </timestep>
    <timestep time="42.00">
        <vehicle id="56.0" x="177.45" y="146.79" angle="198.22" type="Car" speed="13.41" pos="40.00" lane="47360621_0" slope="0.00"/>
        <vehicle id="56.1" x="208.79" y="245.15" angle="197.21" type="Car" speed="12.88" pos="24.42" lane="-47425124#0_0" slope="0.00"/>
        <vehicle id="56.2" x="233.43" y="325.06" angle="197.10" type="Car" speed="9.90" pos="53.71" lane="-47425124#2_0" slope="0.00"/>
        <vehicle id="56.3" x="250.44" y="381.69" angle="182.69" type="Car" speed="8.17" pos="2.02" lane=":603045533_1_0" slope="0.00"/>
        <vehicle id="56.4" x="266.18" y="388.20" angle="341.47" type="Car" speed="3.80" pos="6.10" lane=":603045559_0_0" slope="0.00"/>
        <vehicle id="56.5" x="302.68" y="365.44" angle="296.57" type="Car" speed="8.69" pos="62.62" lane="47368026#2_0" slope="0.00"/>
        <vehicle id="56.6" x="337.94" y="347.80" angle="296.57" type="Car" speed="4.29" pos="23.19" lane="47368026#2_0" slope="0.00"/>
        <vehicle id="56.7" x="354.31" y="339.61" angle="296.57" type="Car" speed="1.16" pos="4.88" lane="47368026#2_0" slope="0.00"/>