<?xml version="1.0" encoding="UTF-8"?>

<!-- generated on 04/24/20 13:15:37 by Eclipse SUMO Version 1.2.0
<configuration xmlns:xsi="http://www.w3.org/2001/XMLSchema-instance" xsi:noNamespaceSchemaLocation="http://sumo.dlr.de/xsd/sumoConfiguration.xsd">

    <input>
        <net-file value="mapNetconvert.net.xml"/>
        <route-files value="C:\Users\darkm\Documents\Mogen\models\flow\routes.rou.xml"/>
        <additional-files value="C:\Users\darkm\Documents\Mogen\vehicles.add.xml"/>
    </input>

    <output>
        <fcd-output value="C:\Users\darkm\Documents\Mogen\models\flow\mapNetconvert.fcd"/>
    </output>

</configuration>
-->

<fcd-export xmlns:xsi="http://www.w3.org/2001/XMLSchema-instance" xsi:noNamespaceSchemaLocation="http://sumo.dlr.de/xsd/fcd_file.xsd">
    <timestep time="0.00">
        <vehicle id="44.0" x="2439.01" y="1676.80" angle="87.40" type="Sport" speed="0.00" pos="1.10" lane="44511183#1_0" slope="0.00"/>
    </timestep>
    <timestep time="1.00">
        <vehicle id="44.0" x="2441.48" y="1676.91" angle="87.40" type="Sport" speed="2.47" pos="3.57" lane="44511183#1_0" slope="0.00"/>
    </timestep>
    <timestep time="2.00">
        <vehicle id="44.0" x="2445.57" y="1677.10" angle="87.40" type="Sport" speed="4.10" pos="7.67" lane="44511183#1_0" slope="0.00"/>
        <vehicle id="44.1" x="2439.01" y="1676.80" angle="87.40" type="Sport" speed="0.00" pos="1.10" lane="44511183#1_0" slope="0.00"/>
    </timestep>
    <timestep time="3.00">
        <vehicle id="44.0" x="2451.43" y="1677.37" angle="87.40" type="Sport" speed="5.87" pos="13.54" lane="44511183#1_0" slope="0.00"/>
        <vehicle id="44.1" x="2439.42" y="1676.82" angle="87.40" type="Sport" speed="0.41" pos="1.51" lane="44511183#1_0" slope="0.00"/>
    </timestep>
    <timestep time="4.00">
        <vehicle id="44.0" x="2459.54" y="1677.73" angle="87.40" type="Sport" speed="8.11" pos="21.65" lane="44511183#1_0" slope="0.00"/>
        <vehicle id="44.1" x="2440.68" y="1676.88" angle="87.40" type="Sport" speed="1.27" pos="2.78" lane="44511183#1_0" slope="0.00"/>
    </timestep>
    <timestep time="5.00">
        <vehicle id="44.0" x="2469.60" y="1678.19" angle="87.40" type="Sport" speed="10.07" pos="31.72" lane="44511183#1_0" slope="0.00"/>
        <vehicle id="44.1" x="2442.52" y="1676.96" angle="87.40" type="Sport" speed="1.84" pos="4.62" lane="44511183#1_0" slope="0.00"/>
        <vehicle id="44.2" x="2439.01" y="1676.80" angle="87.40" type="Sport" speed="0.00" pos="1.10" lane="44511183#1_0" slope="0.00"/>
    </timestep>
    <timestep time="6.00">
        <vehicle id="44.0" x="2482.33" y="1678.77" angle="87.40" type="Sport" speed="12.75" pos="44.47" lane="44511183#1_0" slope="0.00"/>
        <vehicle id="44.1" x="2445.76" y="1677.11" angle="87.40" type="Sport" speed="3.24" pos="7.86" lane="44511183#1_0" slope="0.00"/>
        <vehicle id="44.2" x="2439.12" y="1676.80" angle="87.40" type="Sport" speed="0.11" pos="1.21" lane="44511183#1_0" slope="0.00"/>
    </timestep>
    <timestep time="7.00">
        <vehicle id="44.0" x="2496.87" y="1679.43" angle="87.40" type="Sport" speed="14.56" pos="59.02" lane="44511183#1_0" slope="0.00"/>
        <vehicle id="44.1" x="2450.51" y="1677.32" angle="87.40" type="Sport" speed="4.75" pos="12.62" lane="44511183#1_0" slope="0.00"/>
        <vehicle id="44.2" x="2439.70" y="1676.83" angle="87.40" type="Sport" speed="0.59" pos="1.80" lane="44511183#1_0" slope="0.00"/>
    </timestep>
    <timestep time="8.00">
        <vehicle id="44.0" x="2506.42" y="1679.87" angle="87.40" type="Sport" speed="9.56" pos="68.58" lane="44511183#1_0" slope="0.00"/>
        <vehicle id="44.1" x="2457.55" y="1677.64" angle="87.40" type="Sport" speed="7.05" pos="19.66" lane="44511183#1_0" slope="0.00"/>
        <vehicle id="44.2" x="2440.82" y="1676.88" angle="87.40" type="Sport" speed="1.12" pos="2.91" lane="44511183#1_0" slope="0.00"/>
    </timestep>
    <timestep time="9.00">
        <vehicle id="44.0" x="2512.07" y="1680.12" angle="87.40" type="Sport" speed="5.66" pos="74.24" lane="44511183#1_0" slope="0.00"/>
        <vehicle id="44.1" x="2464.52" y="1677.96" angle="87.40" type="Sport" speed="6.97" pos="26.64" lane="44511183#1_0" slope="0.00"/>
        <vehicle id="44.2" x="2442.12" y="1676.94" angle="87.40" type="Sport" speed="1.30" pos="4.21" lane="44511183#1_0" slope="0.00"/>
        <vehicle id="44.3" x="2439.01" y="1676.80" angle="87.40" type="Sport" speed="0.00" pos="1.10" lane="44511183#1_0" slope="0.00"/>
    </timestep>
    <timestep time="10.00">
        <vehicle id="44.0" x="2520.25" y="1680.50" angle="87.39" type="Sport" speed="8.19" pos="6.95" lane=":3276686453_1_0" slope="0.00"/>
        <vehicle id="44.1" x="2469.69" y="1678.20" angle="87.40" type="Sport" speed="5.18" pos="31.81" lane="44511183#1_0" slope="0.00"/>
        <vehicle id="44.2" x="2444.55" y="1677.05" angle="87.40" type="Sport" speed="2.44" pos="6.65" lane="44511183#1_0" slope="0.00"/>
        <vehicle id="44.3" x="2439.10" y="1676.80" angle="87.40" type="Sport" speed="0.09" pos="1.19" lane="44511183#1_0" slope="0.00"/>
    </timestep>
    <timestep time="11.00">
        <vehicle id="44.0" x="2530.09" y="1680.79" angle="88.62" type="Sport" speed="9.84" pos="4.00" lane="44511183#3_0" slope="0.00"/>
        <vehicle id="44.1" x="2476.44" y="1678.50" angle="87.40" type="Sport" speed="6.76" pos="38.57" lane="44511183#1_0" slope="0.00"/>
        <vehicle id="44.2" x="2446.43" y="1677.14" angle="87.40" type="Sport" speed="1.88" pos="8.53" lane="44511183#1_0" slope="0.00"/>
        <vehicle id="44.3" x="2439.50" y="1676.82" angle="87.40" type="Sport" speed="0.40" pos="1.59" lane="44511183#1_0" slope="0.00"/>
    </timestep>
    <timestep time="12.00">
        <vehicle id="44.0" x="2542.87" y="1681.09" angle="88.62" type="Sport" speed="12.79" pos="16.79" lane="44511183#3_0" slope="0.00"/>
        <vehicle id="44.1" x="2486.04" y="1678.94" angle="87.40" type="Sport" speed="9.61" pos="48.18" lane="44511183#1_0" slope="0.00"/>
        <vehicle id="44.2" x="2449.19" y="1677.26" angle="87.40" type="Sport" speed="2.76" pos="11.29" lane="44511183#1_0" slope="0.00"/>
        <vehicle id="44.3" x="2439.99" y="1676.84" angle="87.40" type="Sport" speed="0.49" pos="2.08" lane="44511183#1_0" slope="0.00"/>
    </timestep>
    <timestep time="13.00">
        <vehicle id="44.0" x="2557.14" y="1681.44" angle="88.62" type="Sport" speed="14.27" pos="31.06" lane="44511183#3_0" slope="0.00"/>
        <vehicle id="44.1" x="2497.88" y="1679.48" angle="87.40" type="Sport" speed="11.86" pos="60.04" lane="44511183#1_0" slope="0.00"/>
        <vehicle id="44.2" x="2453.56" y="1677.46" angle="87.40" type="Sport" speed="4.37" pos="15.66" lane="44511183#1_0" slope="0.00"/>
        <vehicle id="44.3" x="2441.01" y="1676.89" angle="87.40" type="Sport" speed="1.02" pos="3.10" lane="44511183#1_0" slope="0.00"/>
        <vehicle id="44.4" x="2439.01" y="1676.80" angle="87.40" type="Sport" speed="0.00" pos="1.10" lane="44511183#1_0" slope="0.00"/>
    </timestep>
    <timestep time="14.00">
        <vehicle id="44.0" x="2571.64" y="1681.79" angle="88.62" type="Sport" speed="14.51" pos="45.57" lane="44511183#3_0" slope="0.00"/>
        <vehicle id="44.1" x="2507.54" y="1679.92" angle="87.40" type="Sport" speed="9.66" pos="69.70" lane="44511183#1_0" slope="0.00"/>
        <vehicle id="44.2" x="2459.18" y="1677.72" angle="87.40" type="Sport" speed="5.63" pos="21.29" lane="44511183#1_0" slope="0.00"/>
        <vehicle id="44.3" x="2441.96" y="1676.93" angle="87.40" type="Sport" speed="0.95" pos="4.05" lane="44511183#1_0" slope="0.00"/>
        <vehicle id="44.4" x="2439.01" y="1676.80" angle="87.40" type="Sport" speed="0.00" pos="1.10" lane="44511183#1_0" slope="0.00"/>
    </timestep>
    <timestep time="15.00">
        <vehicle id="44.0" x="2582.80" y="1682.11" angle="85.48" type="Sport" speed="11.18" pos="56.75" lane="44511183#3_0" slope="0.00"/>
        <vehicle id="44.1" x="2512.67" y="1680.15" angle="87.40" type="Sport" speed="5.14" pos="74.84" lane="44511183#1_0" slope="0.00"/>
        <vehicle id="44.2" x="2464.90" y="1677.98" angle="87.40" type="Sport" speed="5.73" pos="27.02" lane="44511183#1_0" slope="0.00"/>
        <vehicle id="44.3" x="2443.99" y="1677.03" angle="87.40" type="Sport" speed="2.04" pos="6.09" lane="44511183#1_0" slope="0.00"/>
        <vehicle id="44.4" x="2439.10" y="1676.80" angle="87.40" type="Sport" speed="0.09" pos="1.19" lane="44511183#1_0" slope="0.00"/>
    </timestep>
    <timestep time="16.00">
        <vehicle id="44.0" x="2586.92" y="1686.09" angle="18.50" type="Sport" speed="6.18" pos="4.96" lane=":27582540_5_0" slope="0.00"/>
        <vehicle id="44.1" x="2520.26" y="1680.50" angle="87.39" type="Sport" speed="7.60" pos="6.96" lane=":3276686453_1_0" slope="0.00"/>
        <vehicle id="44.2" x="2470.22" y="1678.22" angle="87.40" type="Sport" speed="5.33" pos="32.35" lane="44511183#1_0" slope="0.00"/>
        <vehicle id="44.3" x="2446.46" y="1677.14" angle="87.40" type="Sport" speed="2.47" pos="8.56" lane="44511183#1_0" slope="0.00"/>
        <vehicle id="44.4" x="2439.46" y="1676.82" angle="87.40" type="Sport" speed="0.36" pos="1.55" lane="44511183#1_0" slope="0.00"/>
    </timestep>
    <timestep time="17.00">
        <vehicle id="44.0" x="2585.04" y="1691.72" angle="333.26" type="Sport" speed="5.98" pos="3.16" lane=":27582540_7_0" slope="0.00"/>
        <vehicle id="44.1" x="2529.37" y="1680.77" angle="88.62" type="Sport" speed="9.12" pos="3.28" lane="44511183#3_0" slope="0.00"/>
        <vehicle id="44.2" x="2478.10" y="1678.58" angle="87.40" type="Sport" speed="7.89" pos="40.24" lane="44511183#1_0" slope="0.00"/>
        <vehicle id="44.3" x="2448.34" y="1677.22" angle="87.40" type="Sport" speed="1.88" pos="10.44" lane="44511183#1_0" slope="0.00"/>
        <vehicle id="44.4" x="2440.00" y="1676.85" angle="87.40" type="Sport" speed="0.54" pos="2.09" lane="44511183#1_0" slope="0.00"/>
    </timestep>
    <timestep time="18.00">
        <vehicle id="44.0" x="2581.82" y="1697.25" angle="328.64" type="Sport" speed="6.41" pos="4.74" lane="28730416_0" slope="0.00"/>
        <vehicle id="44.1" x="2540.57" y="1681.04" angle="88.62" type="Sport" speed="11.20" pos="14.49" lane="44511183#3_0" slope="0.00"/>
        <vehicle id="44.2" x="2488.16" y="1679.04" angle="87.40" type="Sport" speed="10.07" pos="50.30" lane="44511183#1_0" slope="0.00"/>
        <vehicle id="44.3" x="2451.49" y="1677.37" angle="87.40" type="Sport" speed="3.16" pos="13.60" lane="44511183#1_0" slope="0.00"/>
        <vehicle id="44.4" x="2440.58" y="1676.87" angle="87.40" type="Sport" speed="0.58" pos="2.67" lane="44511183#1_0" slope="0.00"/>
    </timestep>
    <timestep time="19.00">
        <vehicle id="44.0" x="2577.56" y="1704.25" angle="328.64" type="Sport" speed="8.20" pos="12.93" lane="28730416_0" slope="0.00"/>
        <vehicle id="44.1" x="2552.64" y="1681.33" angle="88.62" type="Sport" speed="12.08" pos="26.56" lane="44511183#3_0" slope="0.00"/>
        <vehicle id="44.2" x="2501.05" y="1679.62" angle="87.40" type="Sport" speed="12.90" pos="63.21" lane="44511183#1_0" slope="0.00"/>
        <vehicle id="44.3" x="2456.31" y="1677.59" angle="87.40" type="Sport" speed="4.83" pos="18.42" lane="44511183#1_0" slope="0.00"/>
        <vehicle id="44.4" x="2441.72" y="1676.92" angle="87.40" type="Sport" speed="1.14" pos="3.81" lane="44511183#1_0" slope="0.00"/>
        <vehicle id="44.5" x="2439.01" y="1676.80" angle="87.40" type="Sport" speed="0.00" pos="1.10" lane="44511183#1_0" slope="0.00"/>
    </timestep>
    <timestep time="20.00">
        <vehicle id="44.0" x="2572.31" y="1712.87" angle="328.64" type="Sport" speed="10.09" pos="23.03" lane="28730416_0" slope="0.00"/>
        <vehicle id="44.1" x="2564.42" y="1681.61" angle="88.62" type="Sport" speed="11.78" pos="38.34" lane="44511183#3_0" slope="0.00"/>
        <vehicle id="44.2" x="2509.15" y="1679.99" angle="87.40" type="Sport" speed="8.11" pos="71.32" lane="44511183#1_0" slope="0.00"/>
        <vehicle id="44.3" x="2462.17" y="1677.85" angle="87.40" type="Sport" speed="5.86" pos="24.28" lane="44511183#1_0" slope="0.00"/>
        <vehicle id="44.4" x="2443.10" y="1676.99" angle="87.40" type="Sport" speed="1.38" pos="5.20" lane="44511183#1_0" slope="0.00"/>
        <vehicle id="44.5" x="2439.07" y="1676.80" angle="87.40" type="Sport" speed="0.06" pos="1.16" lane="44511183#1_0" slope="0.00"/>
    </timestep>
    <timestep time="21.00">
        <vehicle id="44.0" x="2565.93" y="1723.33" angle="328.64" type="Sport" speed="12.25" pos="35.28" lane="28730416_0" slope="0.00"/>
        <vehicle id="44.1" x="2576.20" y="1681.90" angle="88.62" type="Sport" speed="11.79" pos="50.13" lane="44511183#3_0" slope="0.00"/>
        <vehicle id="44.2" x="2517.46" y="1680.37" angle="87.39" type="Sport" speed="8.31" pos="4.15" lane=":3276686453_1_0" slope="0.00"/>
        <vehicle id="44.3" x="2468.77" y="1678.15" angle="87.40" type="Sport" speed="6.61" pos="30.89" lane="44511183#1_0" slope="0.00"/>
        <vehicle id="44.4" x="2444.71" y="1677.06" angle="87.40" type="Sport" speed="1.61" pos="6.80" lane="44511183#1_0" slope="0.00"/>
        <vehicle id="44.5" x="2439.27" y="1676.81" angle="87.40" type="Sport" speed="0.21" pos="1.37" lane="44511183#1_0" slope="0.00"/>
    </timestep>
    <timestep time="22.00">
        <vehicle id="44.0" x="2558.92" y="1734.83" angle="328.64" type="Sport" speed="13.47" pos="48.75" lane="28730416_0" slope="0.00"/>
        <vehicle id="44.1" x="2583.16" y="1682.22" angle="79.38" type="Sport" speed="6.99" pos="57.12" lane="44511183#3_0" slope="0.00"/>
        <vehicle id="44.2" x="2525.75" y="1680.68" angle="88.21" type="Sport" speed="8.30" pos="4.79" lane=":27582495_0_0" slope="0.00"/>
        <vehicle id="44.3" x="2477.40" y="1678.55" angle="87.40" type="Sport" speed="8.64" pos="39.53" lane="44511183#1_0" slope="0.00"/>
        <vehicle id="44.4" x="2447.04" y="1677.17" angle="87.40" type="Sport" speed="2.34" pos="9.14" lane="44511183#1_0" slope="0.00"/>
        <vehicle id="44.5" x="2439.56" y="1676.83" angle="87.40" type="Sport" speed="0.29" pos="1.65" lane="44511183#1_0" slope="0.00"/>
    </timestep>
    <timestep time="23.00">
        <vehicle id="44.0" x="2551.59" y="1746.86" angle="328.64" type="Sport" speed="14.09" pos="62.84" lane="28730416_0" slope="0.00"/>
        <vehicle id="44.1" x="2586.92" y="1686.06" angle="19.20" type="Sport" speed="5.77" pos="4.92" lane=":27582540_5_0" slope="0.00"/>
        <vehicle id="44.2" x="2533.25" y="1680.86" angle="88.62" type="Sport" speed="7.51" pos="7.17" lane="44511183#3_0" slope="0.00"/>
        <vehicle id="44.3" x="2488.68" y="1679.06" angle="87.40" type="Sport" speed="11.30" pos="50.83" lane="44511183#1_0" slope="0.00"/>
        <vehicle id="44.4" x="2451.40" y="1677.36" angle="87.40" type="Sport" speed="4.36" pos="13.50" lane="44511183#1_0" slope="0.00"/>
        <vehicle id="44.5" x="2440.26" y="1676.86" angle="87.40" type="Sport" speed="0.70" pos="2.35" lane="44511183#1_0" slope="0.00"/>
    </timestep>
    <timestep time="24.00">
        <vehicle id="44.0" x="2544.22" y="1758.95" angle="328.64" type="Sport" speed="14.16" pos="77.00" lane="28730416_0" slope="0.00"/>
        <vehicle id="44.1" x="2585.07" y="1691.66" angle="333.26" type="Sport" speed="5.95" pos="3.10" lane=":27582540_7_0" slope="0.00"/>
        <vehicle id="44.2" x="2539.92" y="1681.02" angle="88.62" type="Sport" speed="6.67" pos="13.84" lane="44511183#3_0" slope="0.00"/>
        <vehicle id="44.3" x="2500.36" y="1679.59" angle="87.40" type="Sport" speed="11.69" pos="62.51" lane="44511183#1_0" slope="0.00"/>
        <vehicle id="44.4" x="2456.81" y="1677.61" angle="87.40" type="Sport" speed="5.42" pos="18.92" lane="44511183#1_0" slope="0.00"/>
        <vehicle id="44.5" x="2441.45" y="1676.91" angle="87.40" type="Sport" speed="1.19" pos="3.55" lane="44511183#1_0" slope="0.00"/>
        <vehicle id="44.6" x="2439.01" y="1676.80" angle="87.40" type="Sport" speed="0.00" pos="1.10" lane="44511183#1_0" slope="0.00"/>
    </timestep>
    <timestep time="25.00">
        <vehicle id="44.0" x="2537.28" y="1770.33" angle="328.64" type="Sport" speed="13.33" pos="90.33" lane="28730416_0" slope="0.00"/>
        <vehicle id="44.1" x="2582.01" y="1696.95" angle="328.64" type="Sport" speed="6.11" pos="4.37" lane="28730416_0" slope="0.00"/>
        <vehicle id="44.2" x="2548.13" y="1681.22" angle="88.62" type="Sport" speed="8.22" pos="22.05" lane="44511183#3_0" slope="0.00"/>
        <vehicle id="44.3" x="2508.97" y="1679.98" angle="87.40" type="Sport" speed="8.62" pos="71.13" lane="44511183#1_0" slope="0.00"/>
        <vehicle id="44.4" x="2463.06" y="1677.89" angle="87.40" type="Sport" speed="6.25" pos="25.18" lane="44511183#1_0" slope="0.00"/>
        <vehicle id="44.5" x="2443.03" y="1676.98" angle="87.40" type="Sport" speed="1.58" pos="5.13" lane="44511183#1_0" slope="0.00"/>
        <vehicle id="44.6" x="2439.05" y="1676.80" angle="87.40" type="Sport" speed="0.04" pos="1.14" lane="44511183#1_0" slope="0.00"/>
    </timestep>
    <timestep time="26.00">
        <vehicle id="44.0" x="2529.95" y="1782.35" angle="328.64" type="Sport" speed="14.08" pos="104.41" lane="28730416_0" slope="0.00"/>
        <vehicle id="44.1" x="2577.49" y="1704.36" angle="328.64" type="Sport" speed="8.68" pos="13.06" lane="28730416_0" slope="0.00"/>
        <vehicle id="44.2" x="2558.56" y="1681.47" angle="88.62" type="Sport" speed="10.43" pos="32.49" lane="44511183#3_0" slope="0.00"/>
        <vehicle id="44.3" x="2514.17" y="1680.22" angle="87.39" type="Sport" speed="5.21" pos="0.86" lane=":3276686453_1_0" slope="0.00"/>
        <vehicle id="44.4" x="2469.20" y="1678.17" angle="87.40" type="Sport" speed="6.15" pos="31.32" lane="44511183#1_0" slope="0.00"/>
        <vehicle id="44.5" x="2445.50" y="1677.10" angle="87.40" type="Sport" speed="2.47" pos="7.60" lane="44511183#1_0" slope="0.00"/>
        <vehicle id="44.6" x="2439.33" y="1676.81" angle="87.40" type="Sport" speed="0.28" pos="1.43" lane="44511183#1_0" slope="0.00"/>
    </timestep>
    <timestep time="27.00">
        <vehicle id="44.0" x="2523.04" y="1793.70" angle="328.64" type="Sport" speed="13.29" pos="117.70" lane="28730416_0" slope="0.00"/>
        <vehicle id="44.1" x="2571.49" y="1714.22" angle="328.64" type="Sport" speed="11.54" pos="24.60" lane="28730416_0" slope="0.00"/>
        <vehicle id="44.2" x="2571.01" y="1681.77" angle="88.62" type="Sport" speed="12.45" pos="44.94" lane="44511183#3_0" slope="0.00"/>
        <vehicle id="44.3" x="2520.62" y="1680.51" angle="87.39" type="Sport" speed="6.46" pos="7.32" lane=":3276686453_1_0" slope="0.00"/>
        <vehicle id="44.4" x="2474.19" y="1678.40" angle="87.40" type="Sport" speed="5.00" pos="36.32" lane="44511183#1_0" slope="0.00"/>
        <vehicle id="44.5" x="2448.23" y="1677.22" angle="87.40" type="Sport" speed="2.73" pos="10.33" lane="44511183#1_0" slope="0.00"/>
        <vehicle id="44.6" x="2439.90" y="1676.84" angle="87.40" type="Sport" speed="0.57" pos="1.99" lane="44511183#1_0" slope="0.00"/>
    </timestep>
    <timestep time="28.00">
        <vehicle id="44.0" x="2515.63" y="1805.86" angle="328.64" type="Sport" speed="14.24" pos="131.94" lane="28730416_0" slope="0.00"/>
        <vehicle id="44.1" x="2564.81" y="1725.17" angle="328.64" type="Sport" speed="12.83" pos="37.43" lane="28730416_0" slope="0.00"/>
        <vehicle id="44.2" x="2582.20" y="1682.04" angle="88.62" type="Sport" speed="11.19" pos="56.13" lane="44511183#3_0" slope="0.00"/>
        <vehicle id="44.3" x="2527.88" y="1680.73" angle="88.62" type="Sport" speed="7.26" pos="1.79" lane="44511183#3_0" slope="0.00"/>
        <vehicle id="44.4" x="2481.51" y="1678.73" angle="87.40" type="Sport" speed="7.32" pos="43.64" lane="44511183#1_0" slope="0.00"/>
        <vehicle id="44.5" x="2450.79" y="1677.34" angle="87.40" type="Sport" speed="2.56" pos="12.89" lane="44511183#1_0" slope="0.00"/>
        <vehicle id="44.6" x="2440.61" y="1676.87" angle="87.40" type="Sport" speed="0.71" pos="2.70" lane="44511183#1_0" slope="0.00"/>
    </timestep>
    <timestep time="29.00">
        <vehicle id="44.1" x="2558.38" y="1735.71" angle="328.64" type="Sport" speed="12.35" pos="49.78" lane="28730416_0" slope="0.00"/>
        <vehicle id="44.2" x="2586.74" y="1685.55" angle="19.20" type="Sport" speed="6.22" pos="4.39" lane=":27582540_5_0" slope="0.00"/>
        <vehicle id="44.3" x="2534.72" y="1680.90" angle="88.62" type="Sport" speed="6.84" pos="8.63" lane="44511183#3_0" slope="0.00"/>
        <vehicle id="44.4" x="2491.58" y="1679.19" angle="87.40" type="Sport" speed="10.09" pos="53.73" lane="44511183#1_0" slope="0.00"/>
        <vehicle id="44.5" x="2454.42" y="1677.50" angle="87.40" type="Sport" speed="3.64" pos="16.53" lane="44511183#1_0" slope="0.00"/>
        <vehicle id="44.6" x="2441.63" y="1676.92" angle="87.40" type="Sport" speed="1.02" pos="3.72" lane="44511183#1_0" slope="0.00"/>
        <vehicle id="44.7" x="2439.01" y="1676.80" angle="87.40" type="Sport" speed="0.00" pos="1.10" lane="44511183#1_0" slope="0.00"/>
    </timestep>
    <timestep time="30.00">
        <vehicle id="44.1" x="2552.33" y="1745.64" angle="328.64" type="Sport" speed="11.63" pos="61.41" lane="28730416_0" slope="0.00"/>
        <vehicle id="44.2" x="2585.32" y="1691.16" angle="333.26" type="Sport" speed="5.92" pos="2.53" lane=":27582540_7_0" slope="0.00"/>
        <vehicle id="44.3" x="2541.33" y="1681.06" angle="88.62" type="Sport" speed="6.61" pos="15.24" lane="44511183#3_0" slope="0.00"/>
        <vehicle id="44.4" x="2502.30" y="1679.68" angle="87.40" type="Sport" speed="10.73" pos="64.46" lane="44511183#1_0" slope="0.00"/>
        <vehicle id="44.5" x="2458.64" y="1677.69" angle="87.40" type="Sport" speed="4.23" pos="20.76" lane="44511183#1_0" slope="0.00"/>
        <vehicle id="44.6" x="2442.59" y="1676.96" angle="87.40" type="Sport" speed="0.96" pos="4.68" lane="44511183#1_0" slope="0.00"/>
        <vehicle id="44.7" x="2439.07" y="1676.80" angle="87.40" type="Sport" speed="0.07" pos="1.17" lane="44511183#1_0" slope="0.00"/>
    </timestep>
    <timestep time="31.00">
        <vehicle id="44.1" x="2545.56" y="1756.75" angle="328.64" type="Sport" speed="13.02" pos="74.42" lane="28730416_0" slope="0.00"/>
        <vehicle id="44.2" x="2582.49" y="1696.17" angle="328.64" type="Sport" speed="5.76" pos="3.46" lane="28730416_0" slope="0.00"/>
        <vehicle id="44.3" x="2550.93" y="1681.29" angle="88.62" type="Sport" speed="9.61" pos="24.85" lane="44511183#3_0" slope="0.00"/>
        <vehicle id="44.4" x="2509.88" y="1680.02" angle="87.40" type="Sport" speed="7.58" pos="72.04" lane="44511183#1_0" slope="0.00"/>
        <vehicle id="44.5" x="2465.28" y="1677.99" angle="87.40" type="Sport" speed="6.64" pos="27.40" lane="44511183#1_0" slope="0.00"/>
        <vehicle id="44.6" x="2444.46" y="1677.05" angle="87.40" type="Sport" speed="1.87" pos="6.55" lane="44511183#1_0" slope="0.00"/>
        <vehicle id="44.7" x="2439.22" y="1676.81" angle="87.40" type="Sport" speed="0.15" pos="1.31" lane="44511183#1_0" slope="0.00"/>
    </timestep>
    <timestep time="32.00">
        <vehicle id="44.1" x="2539.37" y="1766.90" angle="328.64" type="Sport" speed="11.89" pos="86.31" lane="28730416_0" slope="0.00"/>
        <vehicle id="44.2" x="2578.44" y="1702.81" angle="328.64" type="Sport" speed="7.78" pos="11.25" lane="28730416_0" slope="0.00"/>
        <vehicle id="44.3" x="2562.79" y="1681.57" angle="88.62" type="Sport" speed="11.87" pos="36.72" lane="44511183#3_0" slope="0.00"/>
        <vehicle id="44.4" x="2514.72" y="1680.24" angle="87.39" type="Sport" speed="4.85" pos="1.41" lane=":3276686453_1_0" slope="0.00"/>
        <vehicle id="44.5" x="2470.66" y="1678.24" angle="87.40" type="Sport" speed="5.39" pos="32.78" lane="44511183#1_0" slope="0.00"/>
        <vehicle id="44.6" x="2446.14" y="1677.12" angle="87.40" type="Sport" speed="1.68" pos="8.23" lane="44511183#1_0" slope="0.00"/>
        <vehicle id="44.7" x="2439.50" y="1676.82" angle="87.40" type="Sport" speed="0.28" pos="1.59" lane="44511183#1_0" slope="0.00"/>
    </timestep>
    <timestep time="33.00">
        <vehicle id="44.1" x="2532.91" y="1777.50" angle="328.64" type="Sport" speed="12.41" pos="98.72" lane="28730416_0" slope="0.00"/>
        <vehicle id="44.2" x="2573.53" y="1710.87" angle="328.64" type="Sport" speed="9.43" pos="20.68" lane="28730416_0" slope="0.00"/>
        <vehicle id="44.3" x="2575.20" y="1681.87" angle="88.62" type="Sport" speed="12.41" pos="49.13" lane="44511183#3_0" slope="0.00"/>
        <vehicle id="44.4" x="2521.98" y="1680.56" angle="88.21" type="Sport" speed="7.27" pos="1.02" lane=":27582495_0_0" slope="0.00"/>
        <vehicle id="44.5" x="2477.72" y="1678.56" angle="87.40" type="Sport" speed="7.07" pos="39.85" lane="44511183#1_0" slope="0.00"/>
        <vehicle id="44.6" x="2448.16" y="1677.22" angle="87.40" type="Sport" speed="2.02" pos="10.26" lane="44511183#1_0" slope="0.00"/>
        <vehicle id="44.7" x="2440.04" y="1676.85" angle="87.40" type="Sport" speed="0.54" pos="2.13" lane="44511183#1_0" slope="0.00"/>
    </timestep>
    <timestep time="34.00">
        <vehicle id="44.1" x="2526.35" y="1788.27" angle="328.64" type="Sport" speed="12.62" pos="111.34" lane="28730416_0" slope="0.00"/>
        <vehicle id="44.2" x="2568.05" y="1719.86" angle="328.64" type="Sport" speed="10.53" pos="31.21" lane="28730416_0" slope="0.00"/>
        <vehicle id="44.3" x="2582.61" y="1682.05" angle="88.62" type="Sport" speed="7.41" pos="56.54" lane="44511183#3_0" slope="0.00"/>
        <vehicle id="44.4" x="2528.90" y="1680.76" angle="88.62" type="Sport" speed="6.92" pos="2.81" lane="44511183#3_0" slope="0.00"/>
        <vehicle id="44.5" x="2487.20" y="1678.99" angle="87.40" type="Sport" speed="9.49" pos="49.34" lane="44511183#1_0" slope="0.00"/>
        <vehicle id="44.6" x="2451.42" y="1677.36" angle="87.40" type="Sport" speed="3.27" pos="13.53" lane="44511183#1_0" slope="0.00"/>
        <vehicle id="44.7" x="2440.71" y="1676.88" angle="87.40" type="Sport" speed="0.67" pos="2.80" lane="44511183#1_0" slope="0.00"/>
    </timestep>
    <timestep time="35.00">
        <vehicle id="44.1" x="2520.22" y="1798.33" angle="328.64" type="Sport" speed="11.78" pos="123.12" lane="28730416_0" slope="0.00"/>
        <vehicle id="44.2" x="2562.50" y="1728.96" angle="328.64" type="Sport" speed="10.67" pos="41.87" lane="28730416_0" slope="0.00"/>
        <vehicle id="44.3" x="2586.83" y="1686.54" angle="4.68" type="Sport" speed="6.84" pos="5.42" lane=":27582540_5_0" slope="0.00"/>
        <vehicle id="44.4" x="2535.70" y="1680.92" angle="88.62" type="Sport" speed="6.81" pos="9.62" lane="44511183#3_0" slope="0.00"/>
        <vehicle id="44.5" x="2498.51" y="1679.51" angle="87.40" type="Sport" speed="11.33" pos="60.66" lane="44511183#1_0" slope="0.00"/>
        <vehicle id="44.6" x="2456.66" y="1677.60" angle="87.40" type="Sport" speed="5.24" pos="18.77" lane="44511183#1_0" slope="0.00"/>
        <vehicle id="44.7" x="2441.44" y="1676.91" angle="87.40" type="Sport" speed="0.74" pos="3.54" lane="44511183#1_0" slope="0.00"/>
        <vehicle id="44.8" x="2439.01" y="1676.80" angle="87.40" type="Sport" speed="0.00" pos="1.10" lane="44511183#1_0" slope="0.00"/>
    </timestep>
    <timestep time="36.00">
        <vehicle id="44.2" x="2556.89" y="1738.16" angle="328.64" type="Sport" speed="10.77" pos="52.65" lane="28730416_0" slope="0.00"/>
        <vehicle id="44.3" x="2584.63" y="1692.54" angle="333.26" type="Sport" speed="6.45" pos="4.08" lane=":27582540_7_0" slope="0.00"/>
        <vehicle id="44.4" x="2542.41" y="1681.08" angle="88.62" type="Sport" speed="6.71" pos="16.33" lane="44511183#3_0" slope="0.00"/>
        <vehicle id="44.5" x="2508.22" y="1679.95" angle="87.40" type="Sport" speed="9.72" pos="70.38" lane="44511183#1_0" slope="0.00"/>
        <vehicle id="44.6" x="2462.94" y="1677.89" angle="87.40" type="Sport" speed="6.29" pos="25.05" lane="44511183#1_0" slope="0.00"/>
        <vehicle id="44.7" x="2442.91" y="1676.98" angle="87.40" type="Sport" speed="1.47" pos="5.01" lane="44511183#1_0" slope="0.00"/>
        <vehicle id="44.8" x="2439.05" y="1676.80" angle="87.40" type="Sport" speed="0.04" pos="1.14" lane="44511183#1_0" slope="0.00"/>
    </timestep>
    <timestep time="37.00">
        <vehicle id="44.2" x="2550.29" y="1748.98" angle="328.64" type="Sport" speed="12.68" pos="65.32" lane="28730416_0" slope="0.00"/>
        <vehicle id="44.3" x="2581.44" y="1697.89" angle="328.64" type="Sport" speed="6.22" pos="5.48" lane="28730416_0" slope="0.00"/>
        <vehicle id="44.4" x="2551.51" y="1681.30" angle="88.62" type="Sport" speed="9.10" pos="25.43" lane="44511183#3_0" slope="0.00"/>
        <vehicle id="44.5" x="2512.93" y="1680.16" angle="87.40" type="Sport" speed="4.72" pos="75.10" lane="44511183#1_0" slope="0.00"/>
        <vehicle id="44.6" x="2468.35" y="1678.13" angle="87.40" type="Sport" speed="5.42" pos="30.47" lane="44511183#1_0" slope="0.00"/>
        <vehicle id="44.7" x="2445.49" y="1677.09" angle="87.40" type="Sport" speed="2.58" pos="7.59" lane="44511183#1_0" slope="0.00"/>
        <vehicle id="44.8" x="2439.30" y="1676.81" angle="87.40" type="Sport" speed="0.26" pos="1.40" lane="44511183#1_0" slope="0.00"/>
    </timestep>
    <timestep time="38.00">
        <vehicle id="44.2" x="2543.51" y="1760.11" angle="328.64" type="Sport" speed="13.03" pos="78.35" lane="28730416_0" slope="0.00"/>
        <vehicle id="44.3" x="2577.17" y="1704.90" angle="328.64" type="Sport" speed="8.21" pos="13.69" lane="28730416_0" slope="0.00"/>