<?xml version="1.0" encoding="UTF-8"?>

<!-- generated on 07/30/20 22:53:58 by Eclipse SUMO Version 1.2.0
<configuration xmlns:xsi="http://www.w3.org/2001/XMLSchema-instance" xsi:noNamespaceSchemaLocation="http://sumo.dlr.de/xsd/sumoConfiguration.xsd">

    <input>
        <net-file value="mapNetconvert.net.xml"/>
        <route-files value="C:\Users\darkm\Documents\proyectos\Mogen\models\od\trips.trips.xml"/>
        <additional-files value="C:\Users\darkm\Documents\proyectos\Mogen\vehicles.add.xml,C:\Users\darkm\Documents\proyectos\Mogen\models\od\tazs.taz.xml"/>
    </input>

    <output>
        <fcd-output value="C:\Users\darkm\Documents\proyectos\Mogen\models\od\mapNetconvert.fcd"/>
    </output>

</configuration>
-->

<fcd-export xmlns:xsi="http://www.w3.org/2001/XMLSchema-instance" xsi:noNamespaceSchemaLocation="http://sumo.dlr.de/xsd/fcd_file.xsd">
    <timestep time="0.00"/>
    <timestep time="1.00"/>
    <timestep time="2.00"/>
    <timestep time="3.00"/>
    <timestep time="4.00"/>
    <timestep time="5.00"/>
    <timestep time="6.00"/>
    <timestep time="7.00"/>
    <timestep time="8.00"/>
    <timestep time="9.00"/>
    <timestep time="10.00"/>
    <timestep time="11.00"/>
    <timestep time="12.00"/>
    <timestep time="13.00"/>
    <timestep time="14.00"/>
    <timestep time="15.00"/>
    <timestep time="16.00"/>
    <timestep time="17.00"/>
    <timestep time="18.00">
        <vehicle id="9" x="622.81" y="581.12" angle="134.13" type="Truck" speed="13.55" pos="3.10" lane="167633351_0" slope="0.00"/>
    </timestep>
    <timestep time="19.00">
        <vehicle id="9" x="631.79" y="571.37" angle="148.38" type="Truck" speed="13.33" pos="16.43" lane="167633351_0" slope="0.00"/>
    </timestep>
    <timestep time="20.00">
        <vehicle id="9" x="638.73" y="559.92" angle="148.79" type="Truck" speed="13.39" pos="29.82" lane="167633351_0" slope="0.00"/>
    </timestep>
    <timestep time="21.00">
        <vehicle id="9" x="645.72" y="548.44" angle="148.66" type="Truck" speed="13.44" pos="43.26" lane="167633351_0" slope="0.00"/>
    </timestep>
    <timestep time="22.00">
        <vehicle id="9" x="651.29" y="536.71" angle="161.01" type="Truck" speed="13.05" pos="3.34" lane="371173887#2_0" slope="0.00"/>
    </timestep>
    <timestep time="23.00">
        <vehicle id="9" x="655.54" y="524.35" angle="161.01" type="Truck" speed="13.08" pos="16.42" lane="371173887#2_0" slope="0.00"/>
    </timestep>
    <timestep time="24.00">
        <vehicle id="9" x="660.31" y="512.32" angle="162.27" type="Truck" speed="12.96" pos="29.37" lane="371173887#2_0" slope="0.00"/>
    </timestep>
    <timestep time="25.00">
        <vehicle id="9" x="658.16" y="499.36" angle="202.16" type="Truck" speed="13.54" pos="10.13" lane=":162639_4_0" slope="0.00"/>
    </timestep>
    <timestep time="26.00">
        <vehicle id="9" x="656.76" y="486.24" angle="183.24" type="Truck" speed="13.23" pos="10.86" lane="5069579#0_0" slope="0.00"/>
    </timestep>
    <timestep time="27.00">
        <vehicle id="9" x="656.03" y="473.29" angle="183.24" type="Truck" speed="12.96" pos="23.83" lane="5069579#0_0" slope="0.00"/>
    </timestep>
    <timestep time="28.00">
        <vehicle id="9" x="655.60" y="459.98" angle="180.92" type="Truck" speed="13.32" pos="37.15" lane="5069579#0_0" slope="0.00"/>
    </timestep>
    <timestep time="29.00">
        <vehicle id="9" x="654.35" y="446.60" angle="188.01" type="Truck" speed="13.47" pos="50.61" lane="5069579#0_0" slope="0.00"/>
    </timestep>
    <timestep time="30.00">
        <vehicle id="9" x="650.02" y="434.24" angle="204.62" type="Truck" speed="13.21" pos="63.82" lane="5069579#0_0" slope="0.00"/>
    </timestep>
    <timestep time="31.00">
        <vehicle id="9" x="645.51" y="422.01" angle="194.00" type="Truck" speed="13.08" pos="6.44" lane=":30078626_0_0" slope="0.00"/>
    </timestep>
    <timestep time="32.00">
        <vehicle id="9" x="645.35" y="408.84" angle="176.39" type="Truck" speed="13.21" pos="8.82" lane="5069579#3_0" slope="0.00"/>
    </timestep>
    <timestep time="33.00">
        <vehicle id="9" x="647.86" y="395.81" angle="167.91" type="Truck" speed="13.28" pos="22.10" lane="5069579#3_0" slope="0.00"/>
    </timestep>
    <timestep time="34.00">
        <vehicle id="9" x="649.64" y="387.46" angle="167.91" type="Truck" speed="8.53" pos="30.63" lane="5069579#3_0" slope="0.00"/>
    </timestep>
    <timestep time="35.00">
        <vehicle id="9" x="650.38" y="384.01" angle="167.91" type="Truck" speed="3.53" pos="34.17" lane="5069579#3_0" slope="0.00"/>
    </timestep>
    <timestep time="36.00">
        <vehicle id="9" x="650.40" y="383.92" angle="167.91" type="Truck" speed="0.09" pos="34.26" lane="5069579#3_0" slope="0.00"/>
    </timestep>
    <timestep time="37.00">
        <vehicle id="9" x="650.41" y="383.88" angle="167.91" type="Truck" speed="0.04" pos="34.30" lane="5069579#3_0" slope="0.00"/>
    </timestep>
    <timestep time="38.00">
        <vehicle id="9" x="650.42" y="383.85" angle="167.91" type="Truck" speed="0.03" pos="34.33" lane="5069579#3_0" slope="0.00"/>
    </timestep>
    <timestep time="39.00">
        <vehicle id="9" x="650.42" y="383.84" angle="167.91" type="Truck" speed="0.01" pos="34.34" lane="5069579#3_0" slope="0.00"/>
    </timestep>
    <timestep time="40.00">
        <vehicle id="9" x="650.42" y="383.84" angle="167.91" type="Truck" speed="0.00" pos="34.34" lane="5069579#3_0" slope="0.00"/>
    </timestep>
    <timestep time="41.00">
        <vehicle id="9" x="650.42" y="383.84" angle="167.91" type="Truck" speed="0.00" pos="34.34" lane="5069579#3_0" slope="0.00"/>
    </timestep>
    <timestep time="42.00">
        <vehicle id="9" x="650.42" y="383.84" angle="167.91" type="Truck" speed="0.00" pos="34.34" lane="5069579#3_0" slope="0.00"/>
    </timestep>
    <timestep time="43.00">
        <vehicle id="9" x="650.42" y="383.84" angle="167.91" type="Truck" speed="0.00" pos="34.34" lane="5069579#3_0" slope="0.00"/>
    </timestep>
    <timestep time="44.00">
        <vehicle id="9" x="650.42" y="383.84" angle="167.91" type="Truck" speed="0.00" pos="34.34" lane="5069579#3_0" slope="0.00"/>
    </timestep>
    <timestep time="45.00">
        <vehicle id="9" x="650.63" y="382.83" angle="168.01" type="Truck" speed="1.03" pos="0.03" lane=":cluster_1851827890_2547038165_2547038186_2547038204_2547038213_14_0" slope="0.00"/>
    </timestep>
    <timestep time="46.00">
        <vehicle id="9" x="650.65" y="380.73" angle="176.13" type="Truck" speed="2.10" pos="2.13" lane=":cluster_1851827890_2547038165_2547038186_2547038204_2547038213_14_0" slope="0.00"/>
    </timestep>
    <timestep time="47.00">
        <vehicle id="9" x="649.91" y="378.03" angle="194.55" type="Truck" speed="2.88" pos="5.01" lane=":cluster_1851827890_2547038165_2547038186_2547038204_2547038213_14_0" slope="0.00"/>
    </timestep>
    <timestep time="48.00">
        <vehicle id="9" x="647.25" y="374.90" angle="226.24" type="Truck" speed="4.18" pos="9.19" lane=":cluster_1851827890_2547038165_2547038186_2547038204_2547038213_14_0" slope="0.00"/>
    </timestep>
    <timestep time="49.00">
        <vehicle id="9" x="642.69" y="372.33" angle="243.81" type="Truck" speed="5.26" pos="14.45" lane=":cluster_1851827890_2547038165_2547038186_2547038204_2547038213_14_0" slope="0.00"/>
    </timestep>
    <timestep time="50.00">
        <vehicle id="9" x="636.63" y="369.97" angle="249.21" type="Truck" speed="6.51" pos="5.86" lane="49499524#0_0" slope="0.00"/>
    </timestep>
    <timestep time="51.00">
        <vehicle id="9" x="629.77" y="367.36" angle="249.21" type="Truck" speed="7.43" pos="0.52" lane="49499524#1_0" slope="0.00"/>
    </timestep>
    <timestep time="52.00">
        <vehicle id="9" x="621.96" y="364.40" angle="249.21" type="Truck" speed="8.34" pos="8.86" lane="49499524#1_0" slope="0.00"/>
    </timestep>
    <timestep time="53.00">
        <vehicle id="9" x="613.63" y="360.80" angle="246.62" type="Truck" speed="9.06" pos="17.92" lane="49499524#1_0" slope="0.00"/>
    </timestep>
    <timestep time="54.00">
        <vehicle id="9" x="604.06" y="356.66" angle="246.62" type="Truck" speed="10.41" pos="28.33" lane="49499524#1_0" slope="0.00"/>
    </timestep>
    <timestep time="55.00">
        <vehicle id="5" x="61.26" y="239.97" angle="152.49" type="Sport" speed="15.04" pos="1.10" lane="148754587#0_0" slope="0.00"/>
        <vehicle id="9" x="593.50" y="352.00" angle="244.84" type="Truck" speed="11.52" pos="2.49" lane=":560055_0_0" slope="0.00"/>
    </timestep>
    <timestep time="56.00">
        <vehicle id="5" x="70.72" y="228.73" angle="152.49" type="Sport" speed="14.32" pos="15.42" lane="148754587#0_1" slope="0.00"/>
        <vehicle id="9" x="582.59" y="345.70" angle="241.09" type="Truck" speed="12.61" pos="2.41" lane="5069790_0" slope="0.00"/>
    </timestep>
    <timestep time="57.00">
        <vehicle id="5" x="80.09" y="218.26" angle="150.96" type="Sport" speed="13.63" pos="29.05" lane="148754587#0_2" slope="0.00"/>
        <vehicle id="9" x="570.76" y="338.61" angle="235.98" type="Truck" speed="13.80" pos="16.22" lane="5069790_0" slope="0.00"/>
    </timestep>
    <timestep time="58.00">
        <vehicle id="5" x="88.88" y="209.03" angle="150.96" type="Sport" speed="12.30" pos="41.35" lane="148754587#0_3" slope="0.00"/>
        <vehicle id="9" x="559.03" y="330.13" angle="226.99" type="Truck" speed="14.52" pos="30.73" lane="5069790_0" slope="0.00"/>
    </timestep>
    <timestep time="59.00">
        <vehicle id="5" x="95.23" y="204.17" angle="150.97" type="Sport" speed="7.30" pos="48.66" lane="148754587#0_4" slope="0.00"/>
        <vehicle id="9" x="548.10" y="319.16" angle="222.01" type="Truck" speed="15.49" pos="46.22" lane="5069790_0" slope="0.00"/>
    </timestep>
    <timestep time="60.00">
        <vehicle id="5" x="99.50" y="196.47" angle="150.97" type="Sport" speed="8.82" pos="57.48" lane="148754587#0_4" slope="0.00"/>
        <vehicle id="9" x="537.68" y="306.67" angle="216.99" type="Truck" speed="16.27" pos="13.19" lane=":859533256_1_0" slope="0.00"/>
    </timestep>
    <timestep time="61.00">
        <vehicle id="5" x="104.82" y="186.88" angle="150.97" type="Sport" speed="10.99" pos="68.47" lane="148754587#0_4" slope="0.00"/>
        <vehicle id="9" x="528.53" y="291.70" angle="210.56" type="Truck" speed="17.55" pos="16.00" lane="167633348#0_0" slope="0.00"/>
    </timestep>
    <timestep time="62.00">
        <vehicle id="5" x="111.34" y="175.07" angle="152.50" type="Sport" speed="13.33" pos="0.88" lane="148754587#2_4" slope="0.00"/>
        <vehicle id="9" x="519.30" y="275.76" angle="210.07" type="Truck" speed="18.43" pos="34.42" lane="167633348#0_0" slope="0.00"/>
    </timestep>
    <timestep time="63.00">
        <vehicle id="5" x="116.59" y="164.89" angle="152.70" type="Sport" speed="11.44" pos="12.32" lane="148754587#2_4" slope="0.00"/>
        <vehicle id="9" x="513.01" y="263.48" angle="206.83" type="Truck" speed="13.79" pos="48.22" lane="167633348#0_0" slope="0.00"/>
    </timestep>
    <timestep time="64.00">
        <vehicle id="5" x="121.55" y="161.54" angle="91.41" type="Sport" speed="6.44" pos="6.17" lane=":cluster_1851643995_30748136_9_0" slope="0.00"/>
        <vehicle id="9" x="509.04" y="255.63" angle="206.83" type="Truck" speed="8.79" pos="57.01" lane="167633348#0_0" slope="0.00"/>
    </timestep>
    <timestep time="65.00">
        <vehicle id="5" x="127.18" y="164.17" angle="59.78" type="Sport" speed="6.27" pos="3.40" lane="24527732#0_1" slope="0.00"/>
        <vehicle id="9" x="507.33" y="252.25" angle="206.83" type="Truck" speed="3.79" pos="60.81" lane="167633348#0_0" slope="0.00"/>
    </timestep>
    <timestep time="66.00">
        <vehicle id="5" x="135.00" y="168.73" angle="59.78" type="Sport" speed="9.06" pos="12.46" lane="24527732#0_1" slope="0.00"/>
        <vehicle id="9" x="507.15" y="251.89" angle="206.83" type="Truck" speed="0.40" pos="61.21" lane="167633348#0_0" slope="0.00"/>
    </timestep>
    <timestep time="67.00">
        <vehicle id="5" x="144.28" y="174.13" angle="59.78" type="Sport" speed="10.74" pos="23.19" lane="24527732#0_1" slope="0.00"/>
        <vehicle id="9" x="507.14" y="251.87" angle="206.83" type="Truck" speed="0.02" pos="61.23" lane="167633348#0_0" slope="0.00"/>
    </timestep>
    <timestep time="68.00">
        <vehicle id="5" x="157.60" y="178.19" angle="59.78" type="Sport" speed="13.54" pos="36.73" lane="24527732#0_0" slope="0.00"/>
        <vehicle id="9" x="507.14" y="251.87" angle="206.83" type="Truck" speed="0.00" pos="61.23" lane="167633348#0_0" slope="0.00"/>
    </timestep>
    <timestep time="69.00">
        <vehicle id="5" x="170.50" y="185.71" angle="59.64" type="Sport" speed="14.93" pos="51.67" lane="24527732#0_0" slope="0.00"/>
        <vehicle id="9" x="507.14" y="251.87" angle="206.83" type="Truck" speed="0.00" pos="61.23" lane="167633348#0_0" slope="0.00"/>
    </timestep>
    <timestep time="70.00">
        <vehicle id="5" x="182.99" y="193.03" angle="59.61" type="Sport" speed="14.48" pos="66.15" lane="24527732#0_0" slope="0.00"/>
        <vehicle id="9" x="507.14" y="251.87" angle="206.83" type="Truck" speed="0.00" pos="61.23" lane="167633348#0_0" slope="0.00"/>
    </timestep>
    <timestep time="71.00">
        <vehicle id="5" x="194.71" y="199.90" angle="59.61" type="Sport" speed="13.58" pos="79.73" lane="24527732#0_0" slope="0.00"/>
        <vehicle id="9" x="507.14" y="251.87" angle="206.83" type="Truck" speed="0.00" pos="61.23" lane="167633348#0_0" slope="0.00"/>
    </timestep>
    <timestep time="72.00">
        <vehicle id="5" x="206.68" y="207.01" angle="59.09" type="Sport" speed="13.92" pos="93.65" lane="24527732#0_0" slope="0.00"/>
        <vehicle id="9" x="507.14" y="251.87" angle="206.83" type="Truck" speed="0.00" pos="61.23" lane="167633348#0_0" slope="0.00"/>
    </timestep>
    <timestep time="73.00">
        <vehicle id="5" x="218.36" y="214.00" angle="59.09" type="Sport" speed="13.62" pos="107.26" lane="24527732#0_0" slope="0.00"/>
        <vehicle id="9" x="507.14" y="251.87" angle="206.83" type="Truck" speed="0.00" pos="61.23" lane="167633348#0_0" slope="0.00"/>
    </timestep>
    <timestep time="74.00">
        <vehicle id="5" x="230.78" y="221.43" angle="59.09" type="Sport" speed="14.47" pos="121.73" lane="24527732#0_0" slope="0.00"/>
        <vehicle id="9" x="507.14" y="251.87" angle="206.83" type="Truck" speed="0.00" pos="61.23" lane="167633348#0_0" slope="0.00"/>
    </timestep>
    <timestep time="75.00">
        <vehicle id="5" x="243.22" y="228.88" angle="59.09" type="Sport" speed="14.50" pos="136.23" lane="24527732#0_0" slope="0.00"/>
        <vehicle id="9" x="507.14" y="251.87" angle="206.83" type="Truck" speed="0.00" pos="61.23" lane="167633348#0_0" slope="0.00"/>
    </timestep>
    <timestep time="76.00">
        <vehicle id="5" x="254.87" y="235.86" angle="59.09" type="Sport" speed="13.58" pos="149.81" lane="24527732#0_0" slope="0.00"/>
        <vehicle id="9" x="507.14" y="251.87" angle="206.83" type="Truck" speed="0.00" pos="61.23" lane="167633348#0_0" slope="0.00"/>
    </timestep>
    <timestep time="77.00">
        <vehicle id="5" x="264.01" y="242.07" angle="54.88" type="Sport" speed="11.05" pos="8.63" lane=":cluster_1116037885_641175_5_0" slope="0.00"/>
        <vehicle id="9" x="507.14" y="251.87" angle="206.83" type="Truck" speed="0.00" pos="61.23" lane="167633348#0_0" slope="0.00"/>
    </timestep>
    <timestep time="78.00">
        <vehicle id="5" x="273.05" y="248.42" angle="54.88" type="Sport" speed="11.05" pos="19.68" lane=":cluster_1116037885_641175_5_0" slope="0.00"/>
        <vehicle id="9" x="507.14" y="251.87" angle="206.83" type="Truck" speed="0.00" pos="61.23" lane="167633348#0_0" slope="0.00"/>
    </timestep>
    <timestep time="79.00">
        <vehicle id="5" x="280.07" y="252.69" angle="59.25" type="Sport" speed="8.22" pos="7.01" lane="502484458_0" slope="0.00"/>
        <vehicle id="9" x="507.14" y="251.87" angle="206.83" type="Truck" speed="0.00" pos="61.23" lane="167633348#0_0" slope="0.00"/>
    </timestep>
    <timestep time="80.00">
        <vehicle id="5" x="287.44" y="257.08" angle="59.15" type="Sport" speed="8.58" pos="15.58" lane="502484458_0" slope="0.00"/>
        <vehicle id="9" x="507.14" y="251.87" angle="206.83" type="Truck" speed="0.00" pos="61.23" lane="167633348#0_0" slope="0.00"/>
    </timestep>
    <timestep time="81.00">
        <vehicle id="5" x="295.09" y="261.66" angle="59.15" type="Sport" speed="8.92" pos="24.50" lane="502484458_0" slope="0.00"/>
        <vehicle id="9" x="507.14" y="251.87" angle="206.83" type="Truck" speed="0.00" pos="61.23" lane="167633348#0_0" slope="0.00"/>
    </timestep>
    <timestep time="82.00">
        <vehicle id="5" x="302.58" y="266.13" angle="59.15" type="Sport" speed="8.72" pos="33.22" lane="502484458_0" slope="0.00"/>
        <vehicle id="9" x="507.14" y="251.87" angle="206.83" type="Truck" speed="0.00" pos="61.23" lane="167633348#0_0" slope="0.00"/>
    </timestep>
    <timestep time="83.00">
        <vehicle id="5" x="310.01" y="270.57" angle="59.15" type="Sport" speed="8.66" pos="41.88" lane="502484458_0" slope="0.00"/>
        <vehicle id="9" x="507.14" y="251.87" angle="206.83" type="Truck" speed="0.00" pos="61.23" lane="167633348#0_0" slope="0.00"/>
    </timestep>
    <timestep time="84.00">
        <vehicle id="5" x="317.49" y="275.04" angle="59.15" type="Sport" speed="8.71" pos="50.59" lane="502484458_0" slope="0.00"/>
        <vehicle id="9" x="507.14" y="251.87" angle="206.83" type="Truck" speed="0.00" pos="61.23" lane="167633348#0_0" slope="0.00"/>
    </timestep>
    <timestep time="85.00">
        <vehicle id="5" x="324.76" y="278.49" angle="73.24" type="Sport" speed="8.11" pos="58.70" lane="502484458_0" slope="0.00"/>
        <vehicle id="9" x="507.14" y="251.87" angle="206.83" type="Truck" speed="0.00" pos="61.23" lane="167633348#0_0" slope="0.00"/>
    </timestep>
    <timestep time="86.00">
        <vehicle id="5" x="332.25" y="279.04" angle="94.02" type="Sport" speed="7.59" pos="66.29" lane="502484458_0" slope="0.00"/>
        <vehicle id="9" x="507.14" y="251.87" angle="206.83" type="Truck" speed="0.00" pos="61.23" lane="167633348#0_0" slope="0.00"/>
    </timestep>
    <timestep time="87.00">
        <vehicle id="5" x="339.95" y="276.82" angle="111.39" type="Sport" speed="8.03" pos="74.32" lane="502484458_0" slope="0.00"/>
        <vehicle id="9" x="507.14" y="251.87" angle="206.83" type="Truck" speed="0.00" pos="61.23" lane="167633348#0_0" slope="0.00"/>
    </timestep>
    <timestep time="88.00">
        <vehicle id="5" x="347.12" y="274.49" angle="98.20" type="Sport" speed="7.60" pos="81.92" lane="502484458_0" slope="0.00"/>
        <vehicle id="9" x="507.14" y="251.87" angle="206.83" type="Truck" speed="0.00" pos="61.23" lane="167633348#0_0" slope="0.00"/>
    </timestep>
    <timestep time="89.00">
        <vehicle id="5" x="353.47" y="274.48" angle="86.12" type="Sport" speed="6.37" pos="88.29" lane="502484458_0" slope="0.00"/>
        <vehicle id="9" x="507.14" y="251.87" angle="206.83" type="Truck" speed="0.00" pos="61.23" lane="167633348#0_0" slope="0.00"/>
    </timestep>
    <timestep time="90.00">
        <vehicle id="5" x="355.56" y="274.76" angle="81.11" type="Sport" speed="2.11" pos="90.40" lane="502484458_0" slope="0.00"/>
        <vehicle id="9" x="506.55" y="250.70" angle="206.87" type="Truck" speed="1.32" pos="0.31" lane=":cluster_1788525406_2545840621_34216045_0_0" slope="0.00"/>
    </timestep>
    <timestep time="91.00">
        <vehicle id="5" x="355.83" y="274.81" angle="80.60" type="Sport" speed="0.28" pos="90.68" lane="502484458_0" slope="0.00"/>
        <vehicle id="9" x="505.42" y="248.51" angle="207.18" type="Truck" speed="2.46" pos="2.77" lane=":cluster_1788525406_2545840621_34216045_0_0" slope="0.00"/>
    </timestep>
    <timestep time="92.00">
        <vehicle id="5" x="355.87" y="274.82" angle="80.52" type="Sport" speed="0.05" pos="90.73" lane="502484458_0" slope="0.00"/>
        <vehicle id="9" x="503.86" y="245.48" angle="207.21" type="Truck" speed="3.41" pos="6.18" lane=":cluster_1788525406_2545840621_34216045_0_0" slope="0.00"/>
    </timestep>
    <timestep time="93.00">
        <vehicle id="5" x="355.88" y="274.82" angle="80.50" type="Sport" speed="0.01" pos="90.73" lane="502484458_0" slope="0.00"/>
        <vehicle id="9" x="501.73" y="241.33" angle="207.21" type="Truck" speed="4.67" pos="10.85" lane=":cluster_1788525406_2545840621_34216045_0_0" slope="0.00"/>
    </timestep>
    <timestep time="94.00">
        <vehicle id="5" x="355.88" y="274.82" angle="80.50" type="Sport" speed="0.00" pos="90.74" lane="502484458_0" slope="0.00"/>
        <vehicle id="9" x="498.93" y="235.96" angle="207.82" type="Truck" speed="6.05" pos="1.77" lane="167633348#3_0" slope="0.00"/>
    </timestep>
    <timestep time="95.00">
        <vehicle id="5" x="355.88" y="274.82" angle="80.50" type="Sport" speed="0.00" pos="90.74" lane="502484458_0" slope="0.00"/>
        <vehicle id="9" x="495.60" y="229.76" angle="208.24" type="Truck" speed="7.03" pos="8.81" lane="167633348#3_0" slope="0.00"/>
    </timestep>
    <timestep time="96.00">
        <vehicle id="5" x="355.89" y="274.82" angle="80.49" type="Sport" speed="0.00" pos="90.74" lane="502484458_0" slope="0.00"/>
        <vehicle id="9" x="491.71" y="222.52" angle="208.24" type="Truck" speed="8.22" pos="17.03" lane="167633348#3_0" slope="0.00"/>
    </timestep>
    <timestep time="97.00">
        <vehicle id="5" x="355.89" y="274.82" angle="80.49" type="Sport" speed="0.00" pos="90.74" lane="502484458_0" slope="0.00"/>
        <vehicle id="9" x="487.40" y="214.49" angle="208.24" type="Truck" speed="9.12" pos="26.14" lane="167633348#3_0" slope="0.00"/>
    </timestep>
    <timestep time="98.00">
        <vehicle id="5" x="355.89" y="274.82" angle="80.49" type="Sport" speed="0.00" pos="90.74" lane="502484458_0" slope="0.00"/>
        <vehicle id="9" x="482.37" y="206.08" angle="217.09" type="Truck" speed="9.86" pos="2.14" lane=":cluster_162643_3217750473_34216027_34216046_3772785058_3772785059_3772785062_762895124_762895171_0_0" slope="0.00"/>
    </timestep>
    <timestep time="99.00">
        <vehicle id="5" x="355.89" y="274.82" angle="80.49" type="Sport" speed="0.00" pos="90.74" lane="502484458_0" slope="0.00"/>
        <vehicle id="9" x="474.11" y="199.02" angle="228.02" type="Truck" speed="10.89" pos="8.69" lane="174600936#0_0" slope="0.00"/>
    </timestep>
    <timestep time="100.00">
        <vehicle id="5" x="355.89" y="274.82" angle="80.49" type="Sport" speed="0.00" pos="90.74" lane="502484458_0" slope="0.00"/>
        <vehicle id="9" x="464.93" y="191.76" angle="231.96" type="Truck" speed="11.71" pos="20.40" lane="174600936#0_0" slope="0.00"/>
    </timestep>
    <timestep time="101.00">
        <vehicle id="5" x="355.89" y="274.82" angle="80.49" type="Sport" speed="0.00" pos="90.74" lane="502484458_0" slope="0.00"/>
        <vehicle id="9" x="454.36" y="184.79" angle="242.07" type="Truck" speed="12.71" pos="33.10" lane="174600936#0_0" slope="0.00"/>
    </timestep>
    <timestep time="102.00">
        <vehicle id="5" x="355.89" y="274.82" angle="80.49" type="Sport" speed="0.00" pos="90.74" lane="502484458_0" slope="0.00"/>
        <vehicle id="9" x="442.18" y="178.67" angle="247.91" type="Truck" speed="13.65" pos="46.75" lane="174600936#0_0" slope="0.00"/>
    </timestep>
    <timestep time="103.00">
        <vehicle id="5" x="355.89" y="274.82" angle="80.49" type="Sport" speed="0.00" pos="90.74" lane="502484458_0" slope="0.00"/>
        <vehicle id="9" x="428.37" y="173.48" angle="249.41" type="Truck" speed="14.75" pos="61.50" lane="174600936#0_0" slope="0.00"/>
    </timestep>
    <timestep time="104.00">
        <vehicle id="5" x="355.89" y="274.82" angle="80.49" type="Sport" speed="0.00" pos="90.74" lane="502484458_0" slope="0.00"/>
        <vehicle id="9" x="413.25" y="169.04" angle="254.44" type="Truck" speed="15.77" pos="77.27" lane="174600936#0_0" slope="0.00"/>
    </timestep>
    <timestep time="105.00">
        <vehicle id="5" x="355.89" y="274.82" angle="80.49" type="Sport" speed="0.00" pos="90.74" lane="502484458_0" slope="0.00"/>
        <vehicle id="9" x="397.06" y="164.69" angle="257.33" type="Truck" speed="16.77" pos="94.04" lane="174600936#0_0" slope="0.00"/>
    </timestep>
    <timestep time="106.00">
        <vehicle id="5" x="355.89" y="274.82" angle="80.49" type="Sport" speed="0.00" pos="90.74" lane="502484458_0" slope="0.00"/>
        <vehicle id="9" x="379.96" y="161.02" angle="257.87" type="Truck" speed="17.49" pos="111.52" lane="174600936#0_0" slope="0.00"/>
    </timestep>
    <timestep time="107.00">
        <vehicle id="5" x="355.89" y="274.82" angle="80.49" type="Sport" speed="0.00" pos="90.74" lane="502484458_0" slope="0.00"/>
        <vehicle id="9" x="362.12" y="157.64" angle="262.78" type="Truck" speed="18.17" pos="129.69" lane="174600936#0_0" slope="0.00"/>
    </timestep>
    <timestep time="108.00">
        <vehicle id="5" x="355.89" y="274.82" angle="80.49" type="Sport" speed="0.00" pos="90.74" lane="502484458_0" slope="0.00"/>
        <vehicle id="9" x="349.03" y="159.77" angle="285.54" type="Truck" speed="13.42" pos="8.83" lane="174600940#0_0" slope="0.00"/>
    </timestep>
    <timestep time="109.00">
        <vehicle id="5" x="355.89" y="274.82" angle="80.49" type="Sport" speed="0.00" pos="90.74" lane="502484458_0" slope="0.00"/>
        <vehicle id="9" x="341.39" y="168.28" angle="336.10" type="Truck" speed="11.73" pos="20.56" lane="174600940#0_0" slope="0.00"/>
    </timestep>
    <timestep time="110.00">
        <vehicle id="5" x="355.89" y="274.82" angle="80.49" type="Sport" speed="0.00" pos="90.74" lane="502484458_0" slope="0.00"/>
        <vehicle id="9" x="340.10" y="175.07" angle="354.20" type="Truck" speed="6.95" pos="27.51" lane="174600940#0_0" slope="0.00"/>
    </timestep>
    <timestep time="111.00">
        <vehicle id="5" x="355.89" y="274.82" angle="80.49" type="Sport" speed="0.00" pos="90.74" lane="502484458_0" slope="0.00"/>
        <vehicle id="9" x="339.90" y="177.01" angle="354.20" type="Truck" speed="1.95" pos="29.47" lane="174600940#0_0" slope="0.00"/>
    </timestep>
    <timestep time="112.00">
        <vehicle id="5" x="355.89" y="274.82" angle="80.49" type="Sport" speed="0.00" pos="90.74" lane="502484458_0" slope="0.00"/>
        <vehicle id="9" x="339.90" y="177.08" angle="354.20" type="Truck" speed="0.07" pos="29.54" lane="174600940#0_0" slope="0.00"/>
    </timestep>
    <timestep time="113.00">
        <vehicle id="5" x="355.89" y="274.82" angle="80.49" type="Sport" speed="0.00" pos="90.74" lane="502484458_0" slope="0.00"/>
        <vehicle id="9" x="339.89" y="177.12" angle="354.20" type="Truck" speed="0.04" pos="29.57" lane="174600940#0_0" slope="0.00"/>
    </timestep>
    <timestep time="114.00">
        <vehicle id="5" x="355.89" y="274.82" angle="80.49" type="Sport" speed="0.00" pos="90.74" lane="502484458_0" slope="0.00"/>
        <vehicle id="9" x="339.89" y="177.13" angle="354.20" type="Truck" speed="0.01" pos="29.59" lane="174600940#0_0" slope="0.00"/>
    </timestep>
    <timestep time="115.00">
        <vehicle id="5" x="355.89" y="274.82" angle="80.49" type="Sport" speed="0.00" pos="90.74" lane="502484458_0" slope="0.00"/>
        <vehicle id="9" x="339.89" y="177.14" angle="354.20" type="Truck" speed="0.01" pos="29.60" lane="174600940#0_0" slope="0.00"/>
    </timestep>
    <timestep time="116.00">
        <vehicle id="5" x="355.89" y="274.82" angle="80.49" type="Sport" speed="0.00" pos="90.74" lane="502484458_0" slope="0.00"/>
        <vehicle id="9" x="339.89" y="177.14" angle="354.20" type="Truck" speed="0.00" pos="29.60" lane="174600940#0_0" slope="0.00"/>
    </timestep>
    <timestep time="117.00">
        <vehicle id="5" x="355.89" y="274.82" angle="80.49" type="Sport" speed="0.00" pos="90.74" lane="502484458_0" slope="0.00"/>
        <vehicle id="9" x="339.89" y="177.14" angle="354.20" type="Truck" speed="0.00" pos="29.60" lane="174600940#0_0" slope="0.00"/>
    </timestep>
    <timestep time="118.00">
        <vehicle id="5" x="355.89" y="274.82" angle="80.49" type="Sport" speed="0.00" pos="90.74" lane="502484458_0" slope="0.00"/>
        <vehicle id="9" x="339.89" y="177.14" angle="354.20" type="Truck" speed="0.00" pos="29.60" lane="174600940#0_0" slope="0.00"/>
    </timestep>
    <timestep time="119.00">
        <vehicle id="5" x="355.89" y="274.82" angle="80.49" type="Sport" speed="0.00" pos="90.74" lane="502484458_0" slope="0.00"/>
        <vehicle id="9" x="339.89" y="177.14" angle="354.20" type="Truck" speed="0.00" pos="29.60" lane="174600940#0_0" slope="0.00"/>
    </timestep>
    <timestep time="120.00">
        <vehicle id="5" x="355.89" y="274.82" angle="80.49" type="Sport" speed="0.00" pos="90.74" lane="502484458_0" slope="0.00"/>
        <vehicle id="9" x="339.89" y="177.14" angle="354.20" type="Truck" speed="0.00" pos="29.60" lane="174600940#0_0" slope="0.00"/>
    </timestep>
    <timestep time="121.00">
        <vehicle id="5" x="355.89" y="274.82" angle="80.49" type="Sport" speed="0.00" pos="90.74" lane="502484458_0" slope="0.00"/>
        <vehicle id="9" x="339.89" y="177.14" angle="354.20" type="Truck" speed="0.00" pos="29.60" lane="174600940#0_0" slope="0.00"/>
    </timestep>
    <timestep time="122.00">
        <vehicle id="5" x="355.89" y="274.82" angle="80.49" type="Sport" speed="0.00" pos="90.74" lane="502484458_0" slope="0.00"/>
        <vehicle id="9" x="339.89" y="177.14" angle="354.20" type="Truck" speed="0.00" pos="29.60" lane="174600940#0_0" slope="0.00"/>
    </timestep>
    <timestep time="123.00">
        <vehicle id="5" x="355.89" y="274.82" angle="80.49" type="Sport" speed="0.00" pos="90.74" lane="502484458_0" slope="0.00"/>