<?xml version="1.0" encoding="UTF-8"?>

<!-- generated on 08/31/20 01:31:22 by Eclipse SUMO Version 1.2.0
<configuration xmlns:xsi="http://www.w3.org/2001/XMLSchema-instance" xsi:noNamespaceSchemaLocation="http://sumo.dlr.de/xsd/sumoConfiguration.xsd">

    <input>
        <net-file value="mapNetconvert.net.xml"/>
        <route-files value="C:\Users\darkm\Documents\proyectos\Mogen\models\od\trips.trips.xml"/>
        <additional-files value="C:\Users\darkm\Documents\proyectos\Mogen\vehicles.add.xml,C:\Users\darkm\Documents\proyectos\Mogen\models\od\tazs.taz.xml"/>
    </input>

    <output>
        <fcd-output value="C:\Users\darkm\Documents\proyectos\Mogen\models\od\mapNetconvert.fcd"/>
    </output>

</configuration>
-->

<fcd-export xmlns:xsi="http://www.w3.org/2001/XMLSchema-instance" xsi:noNamespaceSchemaLocation="http://sumo.dlr.de/xsd/fcd_file.xsd">
    <timestep time="0.00"/>
    <timestep time="1.00"/>
    <timestep time="2.00"/>
    <timestep time="3.00"/>
    <timestep time="4.00"/>
    <timestep time="5.00"/>
    <timestep time="6.00"/>
    <timestep time="7.00"/>
    <timestep time="8.00"/>
    <timestep time="9.00"/>
    <timestep time="10.00"/>
    <timestep time="11.00"/>
    <timestep time="12.00"/>
    <timestep time="13.00"/>
    <timestep time="14.00"/>
    <timestep time="15.00"/>
    <timestep time="16.00"/>
    <timestep time="17.00"/>
    <timestep time="18.00">
        <vehicle id="9" x="405.57" y="454.48" angle="24.36" type="Truck" speed="27.09" pos="3.10" lane="825926549#1_0" slope="0.00"/>
    </timestep>
    <timestep time="19.00">
        <vehicle id="9" x="418.27" y="477.71" angle="32.58" type="Truck" speed="26.71" pos="29.81" lane="825926549#1_0" slope="0.00"/>
    </timestep>
    <timestep time="20.00">
        <vehicle id="9" x="434.23" y="499.08" angle="42.98" type="Truck" speed="26.95" pos="56.76" lane="825926549#1_0" slope="0.00"/>
    </timestep>
    <timestep time="21.00">
        <vehicle id="9" x="453.16" y="517.14" angle="51.59" type="Truck" speed="26.41" pos="83.17" lane="825926549#1_0" slope="0.00"/>
    </timestep>
    <timestep time="22.00">
        <vehicle id="9" x="474.22" y="532.78" angle="56.89" type="Truck" speed="26.44" pos="109.61" lane="825926549#1_0" slope="0.00"/>
    </timestep>
    <timestep time="23.00">
        <vehicle id="9" x="497.36" y="546.34" angle="60.77" type="Truck" speed="27.03" pos="0.11" lane=":248030768_2_0" slope="0.00"/>
    </timestep>
    <timestep time="24.00">
        <vehicle id="9" x="520.75" y="558.99" angle="71.26" type="Truck" speed="26.90" pos="25.70" lane="521744401#0_0" slope="0.00"/>
    </timestep>
    <timestep time="25.00">
        <vehicle id="9" x="543.15" y="566.26" angle="75.40" type="Truck" speed="23.72" pos="4.38" lane=":248951212_0_0" slope="0.00"/>
    </timestep>
    <timestep time="26.00">
        <vehicle id="9" x="561.74" y="565.53" angle="103.58" type="Truck" speed="18.76" pos="7.56" lane="23070041_0" slope="0.00"/>
    </timestep>
    <timestep time="27.00">
        <vehicle id="9" x="574.59" y="559.93" angle="121.20" type="Truck" speed="14.05" pos="21.61" lane="23070041_0" slope="0.00"/>
    </timestep>
    <timestep time="28.00">
        <vehicle id="9" x="582.10" y="554.93" angle="127.24" type="Truck" speed="9.05" pos="30.66" lane="23070041_0" slope="0.00"/>
    </timestep>
    <timestep time="29.00">
        <vehicle id="9" x="589.76" y="547.89" angle="133.24" type="Truck" speed="10.40" pos="6.22" lane=":3400265838_3_0" slope="0.00"/>
    </timestep>
    <timestep time="30.00">
        <vehicle id="9" x="596.96" y="538.91" angle="148.00" type="Truck" speed="11.56" pos="1.39" lane="-521744392_0" slope="0.00"/>
    </timestep>
    <timestep time="31.00">
        <vehicle id="9" x="603.24" y="527.61" angle="150.97" type="Truck" speed="12.93" pos="14.32" lane="-521744392_0" slope="0.00"/>
    </timestep>
    <timestep time="32.00">
        <vehicle id="9" x="610.51" y="515.51" angle="148.54" type="Truck" speed="14.12" pos="28.44" lane="-521744392_0" slope="0.00"/>
    </timestep>
    <timestep time="33.00">
        <vehicle id="9" x="618.94" y="502.60" angle="145.99" type="Truck" speed="15.42" pos="43.86" lane="-521744392_0" slope="0.00"/>
    </timestep>
    <timestep time="34.00">
        <vehicle id="9" x="625.70" y="487.53" angle="143.89" type="Truck" speed="16.58" pos="5.91" lane="-521744400_0" slope="0.00"/>
    </timestep>
    <timestep time="35.00">
        <vehicle id="9" x="636.16" y="473.20" angle="143.89" type="Truck" speed="17.71" pos="23.63" lane="-521744400_0" slope="0.00"/>
    </timestep>
    <timestep time="36.00">
        <vehicle id="9" x="647.47" y="458.43" angle="140.88" type="Truck" speed="18.58" pos="42.21" lane="-521744400_0" slope="0.00"/>
    </timestep>
    <timestep time="37.00">
        <vehicle id="9" x="660.01" y="443.00" angle="140.88" type="Truck" speed="19.84" pos="62.05" lane="-521744400_0" slope="0.00"/>
    </timestep>
    <timestep time="38.00">
        <vehicle id="9" x="673.76" y="427.01" angle="137.88" type="Truck" speed="21.06" pos="83.11" lane="-521744400_0" slope="0.00"/>
    </timestep>
    <timestep time="39.00">
        <vehicle id="9" x="688.57" y="410.63" angle="137.88" type="Truck" speed="22.05" pos="105.16" lane="-521744400_0" slope="0.00"/>
    </timestep>
    <timestep time="40.00">
        <vehicle id="9" x="704.98" y="393.91" angle="134.92" type="Truck" speed="23.39" pos="128.55" lane="-521744400_0" slope="0.00"/>
    </timestep>
    <timestep time="41.00">
        <vehicle id="9" x="723.84" y="379.88" angle="113.79" type="Truck" speed="24.16" pos="8.48" lane=":5083245407_1_0" slope="0.00"/>
    </timestep>
    <timestep time="42.00">
        <vehicle id="9" x="742.75" y="363.47" angle="131.10" type="Truck" speed="25.04" pos="24.76" lane="-521744395_0" slope="0.00"/>
    </timestep>
    <timestep time="43.00">
        <vehicle id="9" x="763.09" y="346.61" angle="128.97" type="Truck" speed="26.42" pos="51.19" lane="-521744395_0" slope="0.00"/>
    </timestep>
    <timestep time="44.00">
        <vehicle id="9" x="783.84" y="330.20" angle="126.68" type="Truck" speed="26.90" pos="3.31" lane="-166359065_1" slope="0.00"/>
    </timestep>
    <timestep time="45.00">
        <vehicle id="9" x="805.49" y="314.08" angle="126.68" type="Truck" speed="26.99" pos="30.31" lane="-166359065_1" slope="0.00"/>
    </timestep>
    <timestep time="46.00">
        <vehicle id="9" x="826.72" y="298.26" angle="126.68" type="Truck" speed="26.48" pos="56.78" lane="-166359065_1" slope="0.00"/>
    </timestep>
    <timestep time="47.00">
        <vehicle id="9" x="848.72" y="284.60" angle="76.14" type="Truck" speed="27.00" pos="2.64" lane=":585263916_4_1" slope="0.00"/>
    </timestep>
    <timestep time="48.00">
        <vehicle id="9" x="871.92" y="274.03" angle="119.07" type="Truck" speed="26.61" pos="23.89" lane="-166359081_1" slope="0.00"/>
    </timestep>
    <timestep time="49.00">
        <vehicle id="9" x="895.31" y="262.13" angle="113.64" type="Truck" speed="26.52" pos="50.41" lane="-166359081_1" slope="0.00"/>
    </timestep>
    <timestep time="50.00">
        <vehicle id="9" x="919.68" y="252.02" angle="111.73" type="Truck" speed="26.45" pos="22.17" lane=":1778093808_4_1" slope="0.00"/>
    </timestep>
    <timestep time="51.00">
        <vehicle id="9" x="943.87" y="242.50" angle="110.81" type="Truck" speed="26.02" pos="48.19" lane=":1778093808_4_1" slope="0.00"/>
    </timestep>
    <timestep time="52.00">
        <vehicle id="9" x="963.75" y="235.10" angle="108.12" type="Truck" speed="21.23" pos="69.42" lane=":1778093808_4_1" slope="0.00"/>
    </timestep>
    <timestep time="53.00">
        <vehicle id="9" x="979.28" y="230.49" angle="101.17" type="Truck" speed="16.23" pos="3.53" lane="-332907983_1" slope="0.00"/>
    </timestep>
    <timestep time="54.00">
        <vehicle id="9" x="990.91" y="228.19" angle="101.17" type="Truck" speed="11.87" pos="15.40" lane="-332907983_1" slope="0.00"/>
    </timestep>
    <timestep time="55.00">
        <vehicle id="5" x="389.52" y="439.93" angle="197.78" type="Sport" speed="30.08" pos="1.10" lane="-825926549#0_0" slope="0.00"/>
        <vehicle id="9" x="997.65" y="226.86" angle="101.17" type="Truck" speed="6.87" pos="22.27" lane="-332907983_1" slope="0.00"/>
    </timestep>
    <timestep time="56.00">
        <vehicle id="5" x="385.98" y="410.71" angle="187.10" type="Sport" speed="29.00" pos="30.10" lane="-825926549#0_1" slope="0.00"/>
        <vehicle id="9" x="999.46" y="228.65" angle="45.38" type="Truck" speed="2.99" pos="0.57" lane=":3400265805_8_0" slope="0.00"/>
    </timestep>
    <timestep time="57.00">
        <vehicle id="5" x="383.13" y="381.20" angle="181.85" type="Sport" speed="29.60" pos="59.70" lane="-825926549#0_1" slope="0.00"/>
        <vehicle id="9" x="997.68" y="233.38" angle="339.26" type="Truck" speed="3.09" pos="1.32" lane="332907983_0" slope="0.00"/>
    </timestep>
    <timestep time="58.00">
        <vehicle id="5" x="383.58" y="352.00" angle="176.48" type="Sport" speed="29.18" pos="88.88" lane="-825926549#0_1" slope="0.00"/>
        <vehicle id="9" x="993.43" y="234.21" angle="281.17" type="Truck" speed="4.33" pos="5.65" lane="332907983_0" slope="0.00"/>
    </timestep>
    <timestep time="59.00">
        <vehicle id="5" x="388.53" y="322.63" angle="167.49" type="Sport" speed="29.76" pos="118.64" lane="-825926549#0_1" slope="0.00"/>
        <vehicle id="9" x="987.92" y="235.30" angle="281.17" type="Truck" speed="5.62" pos="11.27" lane="332907983_0" slope="0.00"/>
    </timestep>
    <timestep time="60.00">
        <vehicle id="5" x="395.68" y="294.35" angle="165.50" type="Sport" speed="29.12" pos="147.76" lane="-825926549#0_1" slope="0.00"/>
        <vehicle id="9" x="981.52" y="236.57" angle="281.17" type="Truck" speed="6.53" pos="17.80" lane="332907983_0" slope="0.00"/>
    </timestep>
    <timestep time="61.00">
        <vehicle id="5" x="403.57" y="265.83" angle="163.85" type="Sport" speed="29.54" pos="177.30" lane="-825926549#0_1" slope="0.00"/>
        <vehicle id="9" x="974.33" y="238.44" angle="289.75" type="Truck" speed="7.45" pos="2.90" lane=":1778093808_0_0" slope="0.00"/>
    </timestep>
    <timestep time="62.00">
        <vehicle id="5" x="411.64" y="236.80" angle="164.88" type="Sport" speed="30.07" pos="207.37" lane="-825926549#0_1" slope="0.00"/>
        <vehicle id="9" x="966.64" y="241.25" angle="290.04" type="Truck" speed="8.18" pos="11.08" lane=":1778093808_0_0" slope="0.00"/>
    </timestep>
    <timestep time="63.00">
        <vehicle id="5" x="417.37" y="208.66" angle="171.86" type="Sport" speed="28.69" pos="236.06" lane="-825926549#0_1" slope="0.00"/>
        <vehicle id="9" x="958.28" y="244.55" angle="293.53" type="Truck" speed="8.99" pos="20.07" lane=":1778093808_0_0" slope="0.00"/>
    </timestep>
    <timestep time="64.00">
        <vehicle id="5" x="419.37" y="179.58" angle="178.51" type="Sport" speed="29.13" pos="265.19" lane="-825926549#0_1" slope="0.00"/>
        <vehicle id="9" x="949.31" y="248.45" angle="293.53" type="Truck" speed="9.78" pos="29.85" lane=":1778093808_0_0" slope="0.00"/>
    </timestep>
    <timestep time="65.00">
        <vehicle id="5" x="418.89" y="150.91" angle="182.37" type="Sport" speed="28.62" pos="293.81" lane="-825926549#0_1" slope="0.00"/>
        <vehicle id="9" x="939.09" y="252.90" angle="293.53" type="Truck" speed="11.15" pos="41.00" lane=":1778093808_0_0" slope="0.00"/>
    </timestep>
    <timestep time="66.00">
        <vehicle id="5" x="413.17" y="122.47" angle="194.80" type="Sport" speed="28.98" pos="322.79" lane="-825926549#0_1" slope="0.00"/>
        <vehicle id="9" x="927.95" y="258.02" angle="294.86" type="Truck" speed="12.26" pos="53.26" lane=":1778093808_0_0" slope="0.00"/>
    </timestep>
    <timestep time="67.00">
        <vehicle id="5" x="403.05" y="95.36" angle="207.55" type="Sport" speed="28.92" pos="351.71" lane="-825926549#0_1" slope="0.00"/>
        <vehicle id="9" x="915.64" y="263.72" angle="294.86" type="Truck" speed="13.56" pos="66.82" lane=":1778093808_0_0" slope="0.00"/>
    </timestep>
    <timestep time="68.00">
        <vehicle id="5" x="387.56" y="71.10" angle="218.00" type="Sport" speed="28.81" pos="380.52" lane="-825926549#0_1" slope="0.00"/>
        <vehicle id="9" x="902.35" y="270.46" angle="297.20" type="Truck" speed="14.90" pos="0.04" lane="166359215_0" slope="0.00"/>
    </timestep>
    <timestep time="69.00">
        <vehicle id="5" x="364.87" y="52.41" angle="235.19" type="Sport" speed="29.45" pos="409.97" lane="-825926549#0_1" slope="0.00"/>
        <vehicle id="9" x="893.25" y="283.34" angle="338.42" type="Truck" speed="15.97" pos="16.02" lane="166359215_0" slope="0.00"/>
    </timestep>
    <timestep time="70.00">
        <vehicle id="5" x="342.64" y="36.95" angle="235.19" type="Sport" speed="27.02" pos="436.99" lane="-825926549#0_1" slope="0.00"/>
        <vehicle id="9" x="888.83" y="299.64" angle="349.76" type="Truck" speed="16.97" pos="32.99" lane="166359215_0" slope="0.00"/>
    </timestep>
    <timestep time="71.00">
        <vehicle id="5" x="324.79" y="23.99" angle="231.91" type="Sport" speed="22.02" pos="459.02" lane="-825926549#0_1" slope="0.00"/>
        <vehicle id="9" x="889.70" y="317.83" angle="11.19" type="Truck" speed="18.34" pos="2.53" lane=":1778093818_2_0" slope="0.00"/>
    </timestep>
    <timestep time="72.00">
        <vehicle id="5" x="311.36" y="13.47" angle="231.91" type="Sport" speed="17.02" pos="476.04" lane="-825926549#0_1" slope="0.00"/>
        <vehicle id="9" x="896.92" y="335.89" angle="21.46" type="Truck" speed="19.46" pos="12.39" lane="-166359316#1_0" slope="0.00"/>
    </timestep>
    <timestep time="73.00">
        <vehicle id="5" x="301.88" y="6.04" angle="231.91" type="Sport" speed="12.02" pos="488.06" lane="-825926549#0_1" slope="0.00"/>
        <vehicle id="9" x="903.92" y="355.14" angle="17.26" type="Truck" speed="20.50" pos="32.89" lane="-166359316#1_0" slope="0.00"/>
    </timestep>
    <timestep time="74.00">
        <vehicle id="5" x="296.34" y="1.70" angle="231.91" type="Sport" speed="7.02" pos="495.08" lane="-825926549#0_1" slope="0.00"/>
        <vehicle id="9" x="908.52" y="375.82" angle="11.48" type="Truck" speed="21.20" pos="54.08" lane="-166359316#1_0" slope="0.00"/>
    </timestep>
    <timestep time="75.00">
        <vehicle id="5" x="295.61" y="-1.04" angle="162.45" type="Sport" speed="3.18" pos="2.46" lane=":430265121_0_0" slope="0.00"/>
        <vehicle id="9" x="917.79" y="394.33" angle="43.56" type="Truck" speed="21.00" pos="75.09" lane="-166359316#1_0" slope="0.00"/>
    </timestep>
    <timestep time="76.00">
        <vehicle id="5" x="299.02" y="-0.26" angle="51.92" type="Sport" speed="3.83" pos="1.62" lane="825926549#0_1" slope="0.00"/>
        <vehicle id="9" x="931.97" y="401.87" angle="78.19" type="Truck" speed="16.32" pos="6.52" lane="166359289_0" slope="0.00"/>
    </timestep>
    <timestep time="77.00">
        <vehicle id="5" x="304.17" y="3.77" angle="51.92" type="Sport" speed="6.56" pos="8.18" lane="825926549#0_1" slope="0.00"/>
        <vehicle id="9" x="943.24" y="401.52" angle="98.15" type="Truck" speed="11.32" pos="17.84" lane="166359289_0" slope="0.00"/>
    </timestep>
    <timestep time="78.00">
        <vehicle id="5" x="311.59" y="9.59" angle="51.92" type="Sport" speed="9.45" pos="17.62" lane="825926549#0_1" slope="0.00"/>
        <vehicle id="9" x="949.36" y="400.06" angle="105.31" type="Truck" speed="6.32" pos="24.16" lane="166359289_0" slope="0.00"/>
    </timestep>
    <timestep time="79.00">
        <vehicle id="5" x="320.23" y="16.36" angle="51.92" type="Sport" speed="10.99" pos="28.62" lane="825926549#0_1" slope="0.00"/>
        <vehicle id="9" x="955.81" y="396.75" angle="118.97" type="Truck" speed="7.27" pos="5.51" lane=":597194730_0_0" slope="0.00"/>
    </timestep>
    <timestep time="80.00">
        <vehicle id="5" x="331.08" y="24.86" angle="51.92" type="Sport" speed="13.81" pos="42.43" lane="825926549#0_1" slope="0.00"/>
        <vehicle id="9" x="961.69" y="390.53" angle="130.42" type="Truck" speed="8.61" pos="5.30" lane=":368243855_1_0" slope="0.00"/>
    </timestep>
    <timestep time="81.00">
        <vehicle id="5" x="344.39" y="34.27" angle="55.19" type="Sport" speed="16.33" pos="58.76" lane="825926549#0_1" slope="0.00"/>
        <vehicle id="9" x="971.10" y="387.96" angle="93.31" type="Truck" speed="9.86" pos="7.50" lane="32726087#6_0" slope="0.00"/>
    </timestep>
    <timestep time="82.00">
        <vehicle id="5" x="360.16" y="45.24" angle="55.19" type="Sport" speed="19.25" pos="78.01" lane="825926549#0_1" slope="0.00"/>
        <vehicle id="9" x="981.36" y="390.67" angle="61.94" type="Truck" speed="10.87" pos="1.69" lane="32726087#7_0" slope="0.00"/>
    </timestep>
    <timestep time="83.00">
        <vehicle id="5" x="380.07" y="55.18" angle="55.19" type="Sport" speed="21.51" pos="99.51" lane="825926549#0_0" slope="0.00"/>
        <vehicle id="9" x="988.68" y="400.10" angle="21.95" type="Truck" speed="12.20" pos="0.65" lane=":1485286640_0_0" slope="0.00"/>
    </timestep>
    <timestep time="84.00">
        <vehicle id="5" x="396.52" y="72.18" angle="38.07" type="Sport" speed="23.69" pos="123.20" lane="825926549#0_0" slope="0.00"/>
        <vehicle id="9" x="995.64" y="411.60" angle="32.16" type="Truck" speed="13.47" pos="4.55" lane="177952948_0" slope="0.00"/>
    </timestep>
    <timestep time="85.00">
        <vehicle id="5" x="409.75" y="94.36" angle="27.58" type="Sport" speed="25.82" pos="149.02" lane="825926549#0_0" slope="0.00"/>
        <vehicle id="9" x="1004.36" y="421.09" angle="48.64" type="Truck" speed="12.94" pos="17.49" lane="177952948_0" slope="0.00"/>
    </timestep>
    <timestep time="86.00">
        <vehicle id="5" x="419.53" y="121.35" angle="17.76" type="Sport" speed="28.69" pos="177.71" lane="825926549#0_0" slope="0.00"/>
        <vehicle id="9" x="1014.73" y="429.14" angle="54.04" type="Truck" speed="13.17" pos="1.25" lane="-763461399#3_0" slope="0.00"/>
    </timestep>
    <timestep time="87.00">
        <vehicle id="5" x="425.29" y="150.89" angle="2.39" type="Sport" speed="30.07" pos="207.78" lane="825926549#0_0" slope="0.00"/>
        <vehicle id="9" x="1027.26" y="434.08" angle="74.48" type="Truck" speed="13.52" pos="14.77" lane="-763461399#3_0" slope="0.00"/>
    </timestep>
    <timestep time="88.00">
        <vehicle id="5" x="425.74" y="180.91" angle="358.50" type="Sport" speed="29.97" pos="237.75" lane="825926549#0_0" slope="0.00"/>
        <vehicle id="9" x="1040.55" y="436.31" angle="85.21" type="Truck" speed="13.51" pos="28.27" lane="-763461399#3_0" slope="0.00"/>
    </timestep>
    <timestep time="89.00">
        <vehicle id="5" x="423.67" y="209.82" angle="351.84" type="Sport" speed="28.95" pos="266.71" lane="825926549#0_0" slope="0.00"/>
        <vehicle id="9" x="1053.72" y="435.41" angle="96.07" type="Truck" speed="13.22" pos="41.49" lane="-763461399#3_0" slope="0.00"/>
    </timestep>
    <timestep time="90.00">
        <vehicle id="5" x="417.73" y="238.82" angle="344.89" type="Sport" speed="29.57" pos="296.28" lane="825926549#0_0" slope="0.00"/>
        <vehicle id="9" x="1066.92" y="433.66" angle="96.31" type="Truck" speed="13.32" pos="54.81" lane="-763461399#3_0" slope="0.00"/>
    </timestep>
    <timestep time="91.00">
        <vehicle id="5" x="409.87" y="267.11" angle="343.84" type="Sport" speed="29.31" pos="325.59" lane="825926549#0_0" slope="0.00"/>
        <vehicle id="9" x="1080.33" y="432.88" angle="91.21" type="Truck" speed="13.44" pos="68.25" lane="-763461399#3_0" slope="0.00"/>
    </timestep>
    <timestep time="92.00">
        <vehicle id="5" x="402.04" y="295.29" angle="345.50" type="Sport" speed="29.19" pos="354.78" lane="825926549#0_0" slope="0.00"/>
        <vehicle id="9" x="1093.37" y="434.95" angle="77.57" type="Truck" speed="13.23" pos="81.48" lane="-763461399#3_0" slope="0.00"/>
    </timestep>
    <timestep time="93.00">
        <vehicle id="5" x="394.72" y="324.29" angle="347.51" type="Sport" speed="29.87" pos="384.65" lane="825926549#0_0" slope="0.00"/>
        <vehicle id="9" x="1106.74" y="435.71" angle="90.85" type="Truck" speed="13.41" pos="94.89" lane="-763461399#3_0" slope="0.00"/>
    </timestep>
    <timestep time="94.00">
        <vehicle id="5" x="389.95" y="352.73" angle="356.52" type="Sport" speed="28.81" pos="413.46" lane="825926549#0_0" slope="0.00"/>
        <vehicle id="9" x="1120.15" y="435.45" angle="91.84" type="Truck" speed="13.42" pos="108.31" lane="-763461399#3_0" slope="0.00"/>
    </timestep>
    <timestep time="95.00">
        <vehicle id="5" x="389.55" y="381.61" angle="1.83" type="Sport" speed="28.86" pos="442.32" lane="825926549#0_0" slope="0.00"/>
        <vehicle id="9" x="1133.46" y="434.57" angle="93.80" type="Truck" speed="13.34" pos="121.65" lane="-763461399#3_0" slope="0.00"/>
    </timestep>
    <timestep time="96.00">
        <vehicle id="5" x="392.51" y="411.38" angle="7.09" type="Sport" speed="29.87" pos="472.19" lane="825926549#0_0" slope="0.00"/>
        <vehicle id="9" x="1146.53" y="436.31" angle="75.37" type="Truck" speed="13.35" pos="135.00" lane="-763461399#3_0" slope="0.00"/>
    </timestep>
    <timestep time="97.00">
        <vehicle id="5" x="399.37" y="439.16" angle="18.23" type="Sport" speed="28.63" pos="1.19" lane=":5377413774_4_0" slope="0.00"/>
        <vehicle id="9" x="1158.00" y="442.77" angle="54.98" type="Truck" speed="13.33" pos="148.33" lane="-763461399#3_0" slope="0.00"/>
    </timestep>
    <timestep time="98.00">
        <vehicle id="5" x="411.43" y="466.36" angle="30.27" type="Sport" speed="30.07" pos="16.46" lane="825926549#1_0" slope="0.00"/>
        <vehicle id="9" x="1168.62" y="450.84" angle="51.95" type="Truck" speed="13.35" pos="161.68" lane="-763461399#3_0" slope="0.00"/>
    </timestep>
    <timestep time="99.00">
        <vehicle id="5" x="427.43" y="491.46" angle="34.65" type="Sport" speed="30.01" pos="46.46" lane="825926549#1_0" slope="0.00"/>
        <vehicle id="9" x="1178.84" y="458.77" angle="52.93" type="Truck" speed="12.95" pos="174.63" lane="-763461399#3_0" slope="0.00"/>
    </timestep>
    <timestep time="100.00">
        <vehicle id="5" x="447.65" y="512.59" angle="45.38" type="Sport" speed="29.49" pos="75.96" lane="825926549#1_0" slope="0.00"/>
        <vehicle id="9" x="1192.12" y="459.25" angle="87.94" type="Truck" speed="13.29" pos="187.92" lane="-763461399#3_0" slope="0.00"/>
    </timestep>
    <timestep time="101.00">
        <vehicle id="5" x="470.29" y="530.21" angle="56.28" type="Sport" speed="28.92" pos="104.88" lane="825926549#1_0" slope="0.00"/>
        <vehicle id="9" x="1204.94" y="460.21" angle="82.65" type="Truck" speed="12.87" pos="200.79" lane="-763461399#3_0" slope="0.00"/>
    </timestep>
    <timestep time="102.00">
        <vehicle id="5" x="494.73" y="544.86" angle="60.94" type="Sport" speed="28.73" pos="133.61" lane="825926549#1_0" slope="0.00"/>
        <vehicle id="9" x="1217.47" y="463.08" angle="72.93" type="Truck" speed="12.90" pos="213.70" lane="-763461399#3_0" slope="0.00"/>
    </timestep>
    <timestep time="103.00">
        <vehicle id="5" x="518.01" y="558.06" angle="71.26" type="Sport" speed="27.01" pos="22.78" lane="521744401#0_0" slope="0.00"/>
        <vehicle id="9" x="1230.21" y="466.27" angle="77.08" type="Truck" speed="13.14" pos="226.84" lane="-763461399#3_0" slope="0.00"/>
    </timestep>
    <timestep time="104.00">
        <vehicle id="5" x="538.66" y="565.07" angle="71.26" type="Sport" speed="22.01" pos="44.78" lane="521744401#0_0" slope="0.00"/>
        <vehicle id="9" x="1243.16" y="466.24" angle="92.55" type="Truck" speed="13.01" pos="239.85" lane="-763461399#3_0" slope="0.00"/>
    </timestep>
    <timestep time="105.00">
        <vehicle id="5" x="554.59" y="571.40" angle="68.31" type="Sport" speed="17.01" pos="1.15" lane="521744401#1_0" slope="0.00"/>
        <vehicle id="9" x="1256.40" y="463.61" angle="102.13" type="Truck" speed="13.51" pos="253.36" lane="-763461399#3_0" slope="0.00"/>
    </timestep>
    <timestep time="106.00">
        <vehicle id="5" x="566.24" y="576.60" angle="58.27" type="Sport" speed="12.22" pos="13.38" lane="521744401#1_0" slope="0.00"/>
        <vehicle id="9" x="1269.28" y="460.49" angle="103.19" type="Truck" speed="13.25" pos="266.60" lane="-763461399#3_0" slope="0.00"/>
    </timestep>
    <timestep time="107.00">
        <vehicle id="5" x="572.43" y="580.78" angle="50.49" type="Sport" speed="7.25" pos="2.21" lane=":3400265840_5_0" slope="0.00"/>
        <vehicle id="9" x="1281.98" y="459.51" angle="82.91" type="Truck" speed="12.93" pos="279.53" lane="-763461399#3_0" slope="0.00"/>
    </timestep>
    <timestep time="108.00">
        <vehicle id="5" x="577.91" y="588.77" angle="7.41" type="Sport" speed="9.99" pos="5.54" lane=":3400265840_8_0" slope="0.00"/>
        <vehicle id="9" x="1293.65" y="465.08" angle="51.92" type="Truck" speed="13.28" pos="292.81" lane="-763461399#3_0" slope="0.00"/>
    </timestep>
    <timestep time="109.00">
        <vehicle id="5" x="576.95" y="598.55" angle="343.57" type="Sport" speed="9.99" pos="0.53" lane="521744405_0" slope="0.00"/>
        <vehicle id="9" x="1301.90" y="475.66" angle="29.97" type="Truck" speed="13.50" pos="306.31" lane="-763461399#3_0" slope="0.00"/>
    </timestep>
    <timestep time="110.00">
        <vehicle id="5" x="572.67" y="610.26" angle="339.92" type="Sport" speed="12.52" pos="13.05" lane="521744405_0" slope="0.00"/>
        <vehicle id="9" x="1307.46" y="487.87" angle="14.02" type="Truck" speed="13.54" pos="319.85" lane="-763461399#3_0" slope="0.00"/>
    </timestep>
    <timestep time="111.00">
        <vehicle id="5" x="568.40" y="624.00" angle="342.73" type="Sport" speed="14.46" pos="27.51" lane="521744405_0" slope="0.00"/>
        <vehicle id="9" x="1310.62" y="500.50" angle="14.10" type="Truck" speed="13.01" pos="332.86" lane="-763461399#3_0" slope="0.00"/>
    </timestep>
    <timestep time="112.00">
        <vehicle id="5" x="563.90" y="639.78" angle="345.27" type="Sport" speed="16.48" pos="7.75" lane=":3400265846_0_0" slope="0.00"/>
        <vehicle id="9" x="1319.32" y="510.66" angle="49.81" type="Truck" speed="13.44" pos="346.30" lane="-763461399#3_0" slope="0.00"/>
    </timestep>
    <timestep time="113.00">
        <vehicle id="5" x="559.62" y="657.22" angle="347.60" type="Sport" speed="18.02" pos="7.15" lane="521744404_0" slope="0.00"/>
        <vehicle id="9" x="1330.13" y="518.22" angle="58.58" type="Truck" speed="13.22" pos="359.53" lane="-763461399#3_0" slope="0.00"/>
    </timestep>
    <timestep time="114.00">
        <vehicle id="5" x="555.88" y="676.46" angle="350.85" type="Sport" speed="19.66" pos="26.81" lane="521744404_0" slope="0.00"/>
        <vehicle id="9" x="1342.90" y="520.87" angle="87.78" type="Truck" speed="13.20" pos="372.73" lane="-763461399#3_0" slope="0.00"/>
    </timestep>
    <timestep time="115.00">
        <vehicle id="5" x="549.79" y="696.38" angle="352.44" type="Sport" speed="21.42" pos="8.97" lane="521744402_0" slope="0.00"/>
        <vehicle id="9" x="1355.86" y="519.92" angle="100.26" type="Truck" speed="13.06" pos="385.79" lane="-763461399#3_0" slope="0.00"/>
    </timestep>
    <timestep time="116.00">
        <vehicle id="5" x="547.38" y="719.46" angle="355.58" type="Sport" speed="23.21" pos="32.18" lane="521744402_0" slope="0.00"/>
        <vehicle id="9" x="1367.39" y="514.30" angle="123.68" type="Truck" speed="13.07" pos="398.86" lane="-763461399#3_0" slope="0.00"/>
    </timestep>
    <timestep time="117.00">
        <vehicle id="5" x="546.08" y="744.52" angle="358.36" type="Sport" speed="25.11" pos="8.85" lane="521744403_0" slope="0.00"/>
        <vehicle id="9" x="1376.98" y="505.31" angle="136.15" type="Truck" speed="13.20" pos="412.06" lane="-763461399#3_0" slope="0.00"/>
    </timestep>
    <timestep time="118.00">
        <vehicle id="5" x="546.25" y="771.65" angle="1.49" type="Sport" speed="27.13" pos="35.99" lane="521744403_0" slope="0.00"/>
        <vehicle id="9" x="1386.68" y="496.33" angle="132.30" type="Truck" speed="13.21" pos="425.27" lane="-763461399#3_0" slope="0.00"/>
    </timestep>
    <timestep time="119.00">
        <vehicle id="5" x="551.59" y="800.61" angle="6.83" type="Sport" speed="29.63" pos="20.36" lane="332907993#0_0" slope="0.00"/>
        <vehicle id="9" x="1396.96" y="487.64" angle="130.03" type="Truck" speed="13.47" pos="438.74" lane="-763461399#3_0" slope="0.00"/>
    </timestep>
    <timestep time="120.00">
        <vehicle id="5" x="555.48" y="828.95" angle="11.24" type="Sport" speed="28.61" pos="48.97" lane="332907993#0_0" slope="0.00"/>
        <vehicle id="9" x="1407.74" y="480.54" angle="121.14" type="Truck" speed="12.94" pos="451.67" lane="-763461399#3_0" slope="0.00"/>
    </timestep>
    <timestep time="121.00">
        <vehicle id="5" x="561.79" y="858.26" angle="14.45" type="Sport" speed="29.98" pos="78.94" lane="332907993#0_0" slope="0.00"/>
        <vehicle id="9" x="1414.51" y="476.41" angle="121.39" type="Truck" speed="7.94" pos="459.61" lane="-763461399#3_0" slope="0.00"/>
    </timestep>
    <timestep time="122.00">
        <vehicle id="5" x="569.41" y="886.72" angle="19.74" type="Sport" speed="29.47" pos="108.41" lane="332907993#0_0" slope="0.00"/>
        <vehicle id="9" x="1422.19" y="474.49" angle="91.34" type="Truck" speed="8.09" pos="7.87" lane=":368243838_7_0" slope="0.00"/>
    </timestep>
    <timestep time="123.00">
        <vehicle id="5" x="579.14" y="913.86" angle="19.74" type="Sport" speed="28.82" pos="137.23" lane="332907993#0_0" slope="0.00"/>
        <vehicle id="9" x="1428.28" y="478.80" angle="44.52" type="Truck" speed="7.62" pos="1.08" lane="-144158355#1_0" slope="0.00"/>
    </timestep>
    <timestep time="124.00">
        <vehicle id="5" x="590.93" y="940.62" angle="23.78" type="Sport" speed="29.22" pos="166.45" lane="332907993#0_0" slope="0.00"/>