<?xml version="1.0" encoding="UTF-8"?>

<!-- generated on 06/28/19 11:45:23 by Eclipse SUMO Version 1.1.0
<configuration xmlns:xsi="http://www.w3.org/2001/XMLSchema-instance" xsi:noNamespaceSchemaLocation="http://sumo.dlr.de/xsd/sumoConfiguration.xsd">

    <input>
        <net-file value="new.net.xml"/>
        <route-files value="./models/random/routes.rou.xml"/>
        <additional-files value="./models/random/vehicles.add.xml"/>
    </input>

    <output>
        <summary-output value="ter.txt"/>
    </output>

</configuration>
-->

<summary xmlns:xsi="http://www.w3.org/2001/XMLSchema-instance" xsi:noNamespaceSchemaLocation="http://sumo.dlr.de/xsd/summary_file.xsd">
    <step time="0.00" loaded="2" inserted="1" running="1" waiting="0" ended="0" meanWaitingTime="0.00" meanTravelTime="-1.00" halting="1" meanSpeed="0.00" meanSpeedRelative="0.00" duration="960438259"/>
    <step time="1.00" loaded="6" inserted="2" running="2" waiting="0" ended="0" meanWaitingTime="0.00" meanTravelTime="-1.00" halting="1" meanSpeed="0.39" meanSpeedRelative="0.03" duration="960438262"/>
    <step time="2.00" loaded="6" inserted="3" running="3" waiting="0" ended="0" meanWaitingTime="0.00" meanTravelTime="-1.00" halting="1" meanSpeed="1.54" meanSpeedRelative="0.39" duration="960438265"/>
    <step time="3.00" loaded="6" inserted="4" running="4" waiting="0" ended="0" meanWaitingTime="0.00" meanTravelTime="-1.00" halting="1" meanSpeed="1.95" meanSpeedRelative="0.29" duration="960438268"/>
    <step time="4.00" loaded="6" inserted="4" running="4" waiting="0" ended="0" meanWaitingTime="0.00" meanTravelTime="-1.00" halting="0" meanSpeed="3.31" meanSpeedRelative="0.47" duration="960438270"/>
    <step time="5.00" loaded="6" inserted="4" running="4" waiting="0" ended="0" meanWaitingTime="0.00" meanTravelTime="-1.00" halting="0" meanSpeed="4.75" meanSpeedRelative="0.61" duration="960438273"/>
    <step time="6.00" loaded="6" inserted="5" running="5" waiting="0" ended="0" meanWaitingTime="0.00" meanTravelTime="-1.00" halting="1" meanSpeed="4.89" meanSpeedRelative="0.53" duration="960438276"/>
    <step time="7.00" loaded="6" inserted="6" running="6" waiting="0" ended="0" meanWaitingTime="0.00" meanTravelTime="-1.00" halting="1" meanSpeed="5.12" meanSpeedRelative="0.66" duration="960438278"/>
    <step time="8.00" loaded="6" inserted="6" running="6" waiting="0" ended="0" meanWaitingTime="0.00" meanTravelTime="-1.00" halting="0" meanSpeed="5.15" meanSpeedRelative="0.69" duration="960438281"/>
    <step time="9.00" loaded="6" inserted="6" running="6" waiting="0" ended="0" meanWaitingTime="0.00" meanTravelTime="-1.00" halting="0" meanSpeed="6.26" meanSpeedRelative="0.76" duration="960438284"/>
    <step time="10.00" loaded="6" inserted="6" running="6" waiting="0" ended="0" meanWaitingTime="0.00" meanTravelTime="-1.00" halting="0" meanSpeed="7.12" meanSpeedRelative="0.93" duration="960438287"/>
    <step time="11.00" loaded="6" inserted="6" running="6" waiting="0" ended="0" meanWaitingTime="0.00" meanTravelTime="-1.00" halting="0" meanSpeed="7.94" meanSpeedRelative="0.76" duration="960438290"/>
    <step time="12.00" loaded="6" inserted="6" running="6" waiting="0" ended="0" meanWaitingTime="0.00" meanTravelTime="-1.00" halting="0" meanSpeed="8.86" meanSpeedRelative="0.80" duration="960438292"/>
    <step time="13.00" loaded="6" inserted="6" running="6" waiting="0" ended="0" meanWaitingTime="0.00" meanTravelTime="-1.00" halting="0" meanSpeed="9.80" meanSpeedRelative="0.89" duration="960438295"/>
    <step time="14.00" loaded="6" inserted="6" running="6" waiting="0" ended="0" meanWaitingTime="0.00" meanTravelTime="-1.00" halting="0" meanSpeed="9.84" meanSpeedRelative="0.84" duration="960438298"/>
    <step time="15.00" loaded="6" inserted="6" running="6" waiting="0" ended="0" meanWaitingTime="0.00" meanTravelTime="-1.00" halting="0" meanSpeed="9.17" meanSpeedRelative="0.79" duration="960438300"/>
    <step time="16.00" loaded="6" inserted="6" running="6" waiting="0" ended="0" meanWaitingTime="0.00" meanTravelTime="-1.00" halting="0" meanSpeed="9.54" meanSpeedRelative="0.81" duration="960438303"/>
    <step time="17.00" loaded="6" inserted="6" running="6" waiting="0" ended="0" meanWaitingTime="0.00" meanTravelTime="-1.00" halting="0" meanSpeed="9.48" meanSpeedRelative="0.82" duration="960438306"/>
    <step time="18.00" loaded="6" inserted="6" running="6" waiting="0" ended="0" meanWaitingTime="0.00" meanTravelTime="-1.00" halting="0" meanSpeed="8.86" meanSpeedRelative="0.75" duration="960438309"/>
    <step time="19.00" loaded="6" inserted="6" running="6" waiting="0" ended="0" meanWaitingTime="0.00" meanTravelTime="-1.00" halting="0" meanSpeed="9.37" meanSpeedRelative="0.79" duration="960438311"/>
    <step time="20.00" loaded="6" inserted="6" running="6" waiting="0" ended="0" meanWaitingTime="0.00" meanTravelTime="-1.00" halting="0" meanSpeed="9.38" meanSpeedRelative="0.76" duration="960438314"/>
    <step time="21.00" loaded="6" inserted="6" running="6" waiting="0" ended="0" meanWaitingTime="0.00" meanTravelTime="-1.00" halting="0" meanSpeed="9.47" meanSpeedRelative="0.79" duration="960438317"/>
    <step time="22.00" loaded="6" inserted="6" running="6" waiting="0" ended="0" meanWaitingTime="0.00" meanTravelTime="-1.00" halting="0" meanSpeed="9.91" meanSpeedRelative="0.83" duration="960438320"/>
    <step time="23.00" loaded="6" inserted="6" running="6" waiting="0" ended="0" meanWaitingTime="0.00" meanTravelTime="-1.00" halting="0" meanSpeed="10.19" meanSpeedRelative="0.86" duration="960438323"/>
    <step time="24.00" loaded="6" inserted="6" running="6" waiting="0" ended="0" meanWaitingTime="0.00" meanTravelTime="-1.00" halting="0" meanSpeed="10.46" meanSpeedRelative="0.87" duration="960438325"/>
    <step time="25.00" loaded="6" inserted="6" running="6" waiting="0" ended="0" meanWaitingTime="0.00" meanTravelTime="-1.00" halting="0" meanSpeed="9.67" meanSpeedRelative="0.78" duration="960438328"/>
    <step time="26.00" loaded="6" inserted="6" running="5" waiting="0" ended="1" meanWaitingTime="0.00" meanTravelTime="24.00" halting="0" meanSpeed="8.63" meanSpeedRelative="0.74" duration="960438331"/>
    <step time="27.00" loaded="6" inserted="6" running="5" waiting="0" ended="1" meanWaitingTime="0.00" meanTravelTime="24.00" halting="0" meanSpeed="8.08" meanSpeedRelative="0.80" duration="960438334"/>
    <step time="28.00" loaded="6" inserted="6" running="5" waiting="0" ended="1" meanWaitingTime="0.00" meanTravelTime="24.00" halting="0" meanSpeed="7.99" meanSpeedRelative="0.77" duration="960438337"/>
    <step time="29.00" loaded="6" inserted="6" running="5" waiting="0" ended="1" meanWaitingTime="0.00" meanTravelTime="24.00" halting="0" meanSpeed="8.07" meanSpeedRelative="0.75" duration="960438339"/>
    <step time="30.00" loaded="6" inserted="6" running="4" waiting="0" ended="2" meanWaitingTime="0.00" meanTravelTime="25.50" halting="0" meanSpeed="5.87" meanSpeedRelative="0.71" duration="960438342"/>
    <step time="31.00" loaded="6" inserted="6" running="3" waiting="0" ended="3" meanWaitingTime="0.00" meanTravelTime="25.00" halting="0" meanSpeed="4.84" meanSpeedRelative="0.69" duration="960438345"/>
    <step time="32.00" loaded="6" inserted="6" running="3" waiting="0" ended="3" meanWaitingTime="0.00" meanTravelTime="25.00" halting="0" meanSpeed="5.08" meanSpeedRelative="0.66" duration="960438348"/>
    <step time="33.00" loaded="6" inserted="6" running="3" waiting="0" ended="3" meanWaitingTime="0.00" meanTravelTime="25.00" halting="0" meanSpeed="5.30" meanSpeedRelative="0.77" duration="960438350"/>
    <step time="34.00" loaded="6" inserted="6" running="3" waiting="0" ended="3" meanWaitingTime="0.00" meanTravelTime="25.00" halting="0" meanSpeed="5.81" meanSpeedRelative="0.73" duration="960438353"/>
    <step time="35.00" loaded="6" inserted="6" running="3" waiting="0" ended="3" meanWaitingTime="0.00" meanTravelTime="25.00" halting="0" meanSpeed="8.02" meanSpeedRelative="1.01" duration="960438356"/>
    <step time="36.00" loaded="6" inserted="6" running="3" waiting="0" ended="3" meanWaitingTime="0.00" meanTravelTime="25.00" halting="0" meanSpeed="8.08" meanSpeedRelative="1.11" duration="960438359"/>
    <step time="37.00" loaded="6" inserted="6" running="3" waiting="0" ended="3" meanWaitingTime="0.00" meanTravelTime="25.00" halting="0" meanSpeed="6.90" meanSpeedRelative="0.58" duration="960438361"/>
    <step time="38.00" loaded="6" inserted="6" running="2" waiting="0" ended="4" meanWaitingTime="0.00" meanTravelTime="28.25" halting="0" meanSpeed="7.50" meanSpeedRelative="0.74" duration="960438364"/>
    <step time="39.00" loaded="6" inserted="6" running="2" waiting="0" ended="4" meanWaitingTime="0.00" meanTravelTime="28.25" halting="0" meanSpeed="8.16" meanSpeedRelative="0.77" duration="960438366"/>
    <step time="40.00" loaded="6" inserted="6" running="2" waiting="0" ended="4" meanWaitingTime="0.00" meanTravelTime="28.25" halting="0" meanSpeed="10.03" meanSpeedRelative="0.93" duration="960438369"/>
    <step time="41.00" loaded="6" inserted="6" running="2" waiting="0" ended="4" meanWaitingTime="0.00" meanTravelTime="28.25" halting="0" meanSpeed="8.70" meanSpeedRelative="0.81" duration="960438372"/>
    <step time="42.00" loaded="6" inserted="6" running="2" waiting="0" ended="4" meanWaitingTime="0.00" meanTravelTime="28.25" halting="0" meanSpeed="9.95" meanSpeedRelative="0.92" duration="960438375"/>
    <step time="43.00" loaded="6" inserted="6" running="2" waiting="0" ended="4" meanWaitingTime="0.00" meanTravelTime="28.25" halting="0" meanSpeed="12.13" meanSpeedRelative="1.12" duration="960438377"/>
    <step time="44.00" loaded="6" inserted="6" running="1" waiting="0" ended="5" meanWaitingTime="0.00" meanTravelTime="31.20" halting="0" meanSpeed="11.69" meanSpeedRelative="0.84" duration="960438380"/>
    <step time="45.00" loaded="6" inserted="6" running="1" waiting="0" ended="5" meanWaitingTime="0.00" meanTravelTime="31.20" halting="0" meanSpeed="14.33" meanSpeedRelative="1.03" duration="960438382"/>
    <step time="46.00" loaded="6" inserted="6" running="1" waiting="0" ended="5" meanWaitingTime="0.00" meanTravelTime="31.20" halting="0" meanSpeed="13.56" meanSpeedRelative="0.98" duration="960438385"/>
    <step time="47.00" loaded="6" inserted="6" running="1" waiting="0" ended="5" meanWaitingTime="0.00" meanTravelTime="31.20" halting="0" meanSpeed="12.83" meanSpeedRelative="0.92" duration="960438388"/>
    <step time="48.00" loaded="6" inserted="6" running="1" waiting="0" ended="5" meanWaitingTime="0.00" meanTravelTime="31.20" halting="0" meanSpeed="7.83" meanSpeedRelative="0.56" duration="960438391"/>
    <step time="49.00" loaded="6" inserted="6" running="1" waiting="0" ended="5" meanWaitingTime="0.00" meanTravelTime="31.20" halting="0" meanSpeed="4.70" meanSpeedRelative="0.34" duration="960438393"/>
    <step time="50.00" loaded="6" inserted="6" running="1" waiting="0" ended="5" meanWaitingTime="0.00" meanTravelTime="31.20" halting="0" meanSpeed="6.51" meanSpeedRelative="0.47" duration="960438396"/>
    <step time="51.00" loaded="6" inserted="6" running="1" waiting="0" ended="5" meanWaitingTime="0.00" meanTravelTime="31.20" halting="0" meanSpeed="7.05" meanSpeedRelative="0.51" duration="960438399"/>
    <step time="52.00" loaded="6" inserted="6" running="1" waiting="0" ended="5" meanWaitingTime="0.00" meanTravelTime="31.20" halting="0" meanSpeed="3.81" meanSpeedRelative="0.27" duration="960438401"/>
    <step time="53.00" loaded="6" inserted="6" running="0" waiting="0" ended="6" meanWaitingTime="0.00" meanTravelTime="33.83" halting="0" meanSpeed="-1.00" meanSpeedRelative="-1.00" duration="960438404"/>
</summary>
