<?xml version="1.0" encoding="UTF-8"?>

<!-- generated on 08/01/19 09:51:37 by Eclipse SUMO Version 1.2.0
<configuration xmlns:xsi="http://www.w3.org/2001/XMLSchema-instance" xsi:noNamespaceSchemaLocation="http://sumo.dlr.de/xsd/sumoConfiguration.xsd">

    <input>
        <net-file value="mapNetconvert.net.xml"/>
        <route-files value="models/random/routes.rou.xml"/>
    </input>

    <output>
        <fcd-output value="C:\Users\darkm\Desktop\C4R\models\random\mapNetconvert.fcd"/>
    </output>

</configuration>
-->

<fcd-export xmlns:xsi="http://www.w3.org/2001/XMLSchema-instance" xsi:noNamespaceSchemaLocation="http://sumo.dlr.de/xsd/fcd_file.xsd">
    <timestep time="0.00">
        <vehicle id="0" x="414.64" y="392.49" angle="39.89" type="Truck" speed="0.00" pos="3.10" lane="47370578#1_0" slope="0.00"/>
    </timestep>
    <timestep time="1.00">
        <vehicle id="0" x="415.10" y="393.04" angle="39.89" type="Truck" speed="0.72" pos="3.82" lane="47370578#1_0" slope="0.00"/>
    </timestep>
    <timestep time="2.00">
        <vehicle id="0" x="416.28" y="394.45" angle="39.89" type="Truck" speed="1.83" pos="5.65" lane="47370578#1_0" slope="0.00"/>
    </timestep>
    <timestep time="3.00">
        <vehicle id="0" x="418.00" y="396.51" angle="39.89" type="Truck" speed="2.69" pos="8.34" lane="47370578#1_0" slope="0.00"/>
        <vehicle id="1" x="560.44" y="395.76" angle="166.00" type="Truck" speed="0.00" pos="3.10" lane="47368031#0_0" slope="0.00"/>
    </timestep>
    <timestep time="4.00">
        <vehicle id="0" x="420.37" y="399.35" angle="39.89" type="Truck" speed="3.69" pos="12.04" lane="47370578#1_0" slope="0.00"/>
        <vehicle id="1" x="560.61" y="395.07" angle="166.00" type="Truck" speed="0.71" pos="3.81" lane="47368031#0_0" slope="0.00"/>
    </timestep>
    <timestep time="5.00">
        <vehicle id="0" x="423.61" y="403.23" angle="39.89" type="Truck" speed="5.06" pos="17.09" lane="47370578#1_0" slope="0.00"/>
        <vehicle id="1" x="561.86" y="393.45" angle="149.73" type="Truck" speed="2.06" pos="0.43" lane=":603087568_1_0" slope="0.00"/>
    </timestep>
    <timestep time="6.00">
        <vehicle id="0" x="427.46" y="407.83" angle="39.89" type="Truck" speed="6.00" pos="23.09" lane="47370578#1_0" slope="0.00"/>
        <vehicle id="1" x="563.91" y="391.58" angle="132.92" type="Truck" speed="2.80" pos="3.23" lane=":603087568_1_0" slope="0.00"/>
        <vehicle id="2" x="317.22" y="637.58" angle="336.64" type="Sport" speed="0.00" pos="1.10" lane="-228371149_0" slope="0.00"/>
    </timestep>
    <timestep time="7.00">
        <vehicle id="0" x="431.92" y="413.17" angle="39.89" type="Truck" speed="6.96" pos="30.05" lane="47370578#1_0" slope="0.00"/>
        <vehicle id="1" x="567.41" y="390.40" angle="106.95" type="Truck" speed="3.71" pos="1.32" lane=":603087563_2_0" slope="0.00"/>
        <vehicle id="2" x="316.44" y="639.39" angle="336.64" type="Sport" speed="1.98" pos="3.08" lane="-228371149_0" slope="0.00"/>
    </timestep>
    <timestep time="8.00">
        <vehicle id="0" x="437.03" y="419.28" angle="39.89" type="Truck" speed="7.97" pos="38.01" lane="47370578#1_0" slope="0.00"/>
        <vehicle id="1" x="571.75" y="390.53" angle="82.69" type="Truck" speed="4.42" pos="5.73" lane=":603087563_2_0" slope="0.00"/>
        <vehicle id="2" x="314.50" y="643.88" angle="336.64" type="Sport" speed="4.89" pos="7.97" lane="-228371149_0" slope="0.00"/>
    </timestep>
    <timestep time="9.00">
        <vehicle id="0" x="443.07" y="426.33" angle="40.97" type="Truck" speed="9.29" pos="6.29" lane=":603095456_4_0" slope="0.00"/>
        <vehicle id="1" x="576.34" y="393.33" angle="53.30" type="Truck" speed="5.43" pos="1.56" lane="47368031#2_0" slope="0.00"/>
        <vehicle id="2" x="312.77" y="647.89" angle="336.64" type="Sport" speed="4.37" pos="12.34" lane="-228371149_0" slope="0.00"/>
        <vehicle id="3" x="256.73" y="423.18" angle="191.25" type="Car" speed="0.00" pos="1.10" lane="228371138#1_0" slope="0.00"/>
    </timestep>
    <timestep time="10.00">
        <vehicle id="0" x="450.13" y="434.28" angle="42.13" type="Truck" speed="10.63" pos="5.66" lane="47370578#2_0" slope="0.00"/>
        <vehicle id="1" x="579.78" y="398.51" angle="24.49" type="Truck" speed="6.37" pos="6.19" lane=":603087571_2_0" slope="0.00"/>
        <vehicle id="2" x="309.46" y="652.64" angle="305.62" type="Sport" speed="5.87" pos="5.07" lane=":2370547825_4_0" slope="0.00"/>
        <vehicle id="3" x="256.22" y="420.64" angle="191.25" type="Car" speed="2.59" pos="3.69" lane="228371138#1_0" slope="0.00"/>
    </timestep>
    <timestep time="11.00">
        <vehicle id="0" x="457.87" y="442.84" angle="42.13" type="Truck" speed="11.55" pos="17.21" lane="47370578#2_0" slope="0.00"/>
        <vehicle id="1" x="577.64" y="405.33" angle="326.14" type="Truck" speed="7.58" pos="13.76" lane=":603087571_2_0" slope="0.00"/>
        <vehicle id="2" x="302.27" y="653.60" angle="254.78" type="Sport" speed="7.68" pos="12.75" lane=":2370547825_4_0" slope="0.00"/>
        <vehicle id="3" x="255.16" y="415.29" angle="191.25" type="Car" speed="5.45" pos="9.14" lane="228371138#1_0" slope="0.00"/>
    </timestep>
    <timestep time="12.00">
        <vehicle id="0" x="466.56" y="452.15" angle="43.64" type="Truck" speed="12.73" pos="29.94" lane="47370578#2_0" slope="0.00"/>
        <vehicle id="1" x="572.84" y="409.64" angle="305.69" type="Truck" speed="6.48" pos="3.28" lane=":603087560_1_0" slope="0.00"/>
        <vehicle id="2" x="295.56" y="650.92" angle="246.64" type="Sport" speed="7.23" pos="5.79" lane="47360669#3_0" slope="0.00"/>
        <vehicle id="3" x="253.79" y="408.44" angle="191.25" type="Car" speed="6.99" pos="16.14" lane="228371138#1_0" slope="0.00"/>
        <vehicle id="4" x="376.70" y="709.12" angle="247.80" type="Car" speed="0.00" pos="1.10" lane="144152790#1_0" slope="0.00"/>
    </timestep>
    <timestep time="13.00">
        <vehicle id="0" x="475.89" y="461.93" angle="43.64" type="Truck" speed="13.51" pos="43.45" lane="47370578#2_0" slope="0.00"/>
        <vehicle id="1" x="566.46" y="409.99" angle="255.90" type="Truck" speed="6.76" pos="10.05" lane=":603087560_1_0" slope="0.00"/>
        <vehicle id="2" x="289.85" y="648.45" angle="246.64" type="Sport" speed="6.23" pos="12.02" lane="47360669#3_0" slope="0.00"/>
        <vehicle id="3" x="253.42" y="404.13" angle="183.69" type="Car" speed="4.33" pos="20.47" lane="228371138#1_0" slope="0.00"/>
        <vehicle id="4" x="375.20" y="708.51" angle="247.80" type="Car" speed="1.62" pos="2.72" lane="144152790#1_0" slope="0.00"/>
    </timestep>
    <timestep time="14.00">
        <vehicle id="0" x="485.61" y="472.12" angle="43.64" type="Truck" speed="14.09" pos="57.54" lane="47370578#2_0" slope="0.00"/>
        <vehicle id="1" x="562.42" y="408.23" angle="250.41" type="Truck" speed="4.54" pos="2.82" lane=":603087561_0_0" slope="0.00"/>
        <vehicle id="2" x="282.74" y="644.81" angle="238.08" type="Sport" speed="8.00" pos="5.62" lane=":603046503_1_0" slope="0.00"/>
        <vehicle id="3" x="253.14" y="398.67" angle="185.11" type="Car" speed="5.47" pos="3.32" lane=":4560069065_0_0" slope="0.00"/>
        <vehicle id="4" x="371.96" y="707.19" angle="247.80" type="Car" speed="3.50" pos="6.22" lane="144152790#1_0" slope="0.00"/>
    </timestep>
    <timestep time="15.00">
        <vehicle id="0" x="491.91" y="480.21" angle="23.33" type="Truck" speed="10.43" pos="67.97" lane="47370578#2_0" slope="0.00"/>
        <vehicle id="1" x="559.58" y="411.58" angle="328.40" type="Truck" speed="4.53" pos="0.65" lane=":603087580_5_0" slope="0.00"/>
        <vehicle id="2" x="274.46" y="640.16" angle="245.72" type="Sport" speed="9.50" pos="0.61" lane="47360672_0" slope="0.00"/>
        <vehicle id="3" x="249.25" y="394.45" angle="221.40" type="Car" speed="6.04" pos="3.99" lane=":603045562_1_0" slope="0.00"/>
        <vehicle id="4" x="366.64" y="705.02" angle="247.80" type="Car" speed="5.74" pos="11.97" lane="144152790#1_0" slope="0.00"/>
        <vehicle id="5" x="546.42" y="339.41" angle="309.50" type="Sport" speed="0.00" pos="1.10" lane="47368030#1_0" slope="0.00"/>
    </timestep>
    <timestep time="16.00">
        <vehicle id="0" x="493.66" y="485.35" angle="18.91" type="Truck" speed="5.43" pos="73.40" lane="47370578#2_0" slope="0.00"/>
        <vehicle id="1" x="557.24" y="416.69" angle="335.37" type="Truck" speed="5.62" pos="6.27" lane=":603087580_5_0" slope="0.00"/>
        <vehicle id="2" x="262.95" y="635.34" angle="247.27" type="Sport" speed="12.48" pos="13.09" lane="47360672_0" slope="0.00"/>
        <vehicle id="3" x="248.47" y="386.99" angle="174.72" type="Car" speed="7.68" pos="2.75" lane=":603045554_2_0" slope="0.00"/>
        <vehicle id="4" x="359.06" y="701.93" angle="247.80" type="Car" speed="8.19" pos="20.16" lane="144152790#1_0" slope="0.00"/>
        <vehicle id="5" x="544.66" y="340.86" angle="309.50" type="Sport" speed="2.28" pos="3.38" lane="47368030#1_0" slope="0.00"/>
    </timestep>
    <timestep time="17.00">
        <vehicle id="0" x="494.97" y="491.41" angle="11.44" type="Truck" speed="6.20" pos="5.63" lane=":603095508_10_0" slope="0.00"/>
        <vehicle id="1" x="554.48" y="422.70" angle="335.37" type="Truck" speed="6.61" pos="12.88" lane=":603087580_5_0" slope="0.00"/>
        <vehicle id="2" x="250.08" y="629.95" angle="247.27" type="Sport" speed="13.95" pos="27.05" lane="47360672_0" slope="0.00"/>
        <vehicle id="3" x="253.91" y="380.83" angle="118.94" type="Car" speed="8.51" pos="4.69" lane=":603045533_2_0" slope="0.00"/>
        <vehicle id="4" x="349.66" y="698.09" angle="247.80" type="Car" speed="10.15" pos="30.30" lane="144152790#1_0" slope="0.00"/>
        <vehicle id="5" x="541.39" y="343.55" angle="309.50" type="Sport" speed="4.23" pos="7.61" lane="47368030#1_0" slope="0.00"/>
    </timestep>
    <timestep time="18.00">
        <vehicle id="0" x="494.47" y="498.83" angle="352.76" type="Truck" speed="7.50" pos="13.13" lane=":603095508_10_0" slope="0.00"/>
        <vehicle id="1" x="551.42" y="429.95" angle="337.21" type="Truck" speed="7.87" pos="7.50" lane="-47370606#4_0" slope="0.00"/>
        <vehicle id="2" x="237.23" y="624.57" angle="247.27" type="Sport" speed="13.93" pos="40.98" lane="47360672_0" slope="0.00"/>
        <vehicle id="3" x="262.94" y="381.01" angle="79.68" type="Car" speed="9.23" pos="2.33" lane=":603045559_1_0" slope="0.00"/>
        <vehicle id="4" x="339.31" y="693.87" angle="247.80" type="Car" speed="11.18" pos="41.48" lane="144152790#1_0" slope="0.00"/>
        <vehicle id="5" x="536.95" y="347.22" angle="309.50" type="Sport" speed="5.76" pos="13.38" lane="47368030#1_0" slope="0.00"/>
        <vehicle id="6" x="457.80" y="280.23" angle="312.70" type="Truck" speed="0.00" pos="3.10" lane="-37975231#0_0" slope="0.00"/>
    </timestep>
    <timestep time="19.00">
        <vehicle id="0" x="490.00" y="505.71" angle="318.60" type="Truck" speed="8.29" pos="21.42" lane=":603095508_10_0" slope="0.00"/>
        <vehicle id="1" x="548.02" y="438.06" angle="337.21" type="Truck" speed="8.80" pos="16.30" lane="-47370606#4_0" slope="0.00"/>
        <vehicle id="2" x="226.21" y="619.76" angle="239.98" type="Sport" speed="12.04" pos="53.02" lane="47360672_0" slope="0.00"/>
        <vehicle id="3" x="271.37" y="378.27" angle="125.15" type="Car" speed="9.30" pos="4.31" lane="-47368026#2_0" slope="0.00"/>
        <vehicle id="4" x="331.92" y="690.85" angle="247.80" type="Car" speed="7.99" pos="49.47" lane="144152790#1_0" slope="0.00"/>
        <vehicle id="5" x="530.26" y="352.73" angle="309.50" type="Sport" speed="8.66" pos="22.04" lane="47368030#1_0" slope="0.00"/>
        <vehicle id="6" x="457.16" y="280.82" angle="312.70" type="Truck" speed="0.87" pos="3.97" lane="-37975231#0_0" slope="0.00"/>
    </timestep>
    <timestep time="20.00">
        <vehicle id="0" x="482.55" y="511.72" angle="304.98" type="Truck" speed="9.59" pos="4.65" lane="47370578#3_0" slope="0.00"/>
        <vehicle id="1" x="544.29" y="446.92" angle="337.21" type="Truck" speed="9.61" pos="25.90" lane="-47370606#4_0" slope="0.00"/>
        <vehicle id="2" x="219.88" y="616.75" angle="251.45" type="Sport" speed="7.04" pos="2.82" lane=":cluster_2370547816_2370547817_2370547818_7_0" slope="0.00"/>
        <vehicle id="3" x="280.74" y="372.83" angle="116.57" type="Car" speed="10.87" pos="15.18" lane="-47368026#2_0" slope="0.00"/>
        <vehicle id="4" x="327.54" y="688.19" angle="230.52" type="Car" speed="5.17" pos="4.84" lane=":603046484_1_0" slope="0.00"/>
        <vehicle id="5" x="521.83" y="359.68" angle="309.50" type="Sport" speed="10.93" pos="32.97" lane="47368030#1_0" slope="0.00"/>
        <vehicle id="6" x="455.84" y="282.05" angle="312.70" type="Truck" speed="1.80" pos="5.77" lane="-37975231#0_0" slope="0.00"/>
    </timestep>
    <timestep time="21.00">
        <vehicle id="0" x="472.96" y="516.24" angle="290.26" type="Truck" speed="10.68" pos="15.33" lane="47370578#3_0" slope="0.00"/>
        <vehicle id="1" x="540.00" y="457.03" angle="336.39" type="Truck" speed="11.00" pos="36.90" lane="-47370606#4_0" slope="0.00"/>
        <vehicle id="2" x="210.80" y="613.71" angle="251.49" type="Sport" speed="9.58" pos="6.18" lane=":cluster_2370547816_2370547817_2370547818_10_0" slope="0.00"/>
        <vehicle id="3" x="292.01" y="367.19" angle="116.57" type="Car" speed="12.61" pos="27.78" lane="-47368026#2_0" slope="0.00"/>
        <vehicle id="4" x="327.90" y="683.39" angle="156.57" type="Car" speed="5.17" pos="2.19" lane="-47360670_0" slope="0.00"/>
        <vehicle id="5" x="514.30" y="365.89" angle="309.50" type="Sport" speed="9.76" pos="42.74" lane="47368030#1_0" slope="0.00"/>
        <vehicle id="6" x="453.82" y="283.90" angle="312.70" type="Truck" speed="2.74" pos="8.51" lane="-37975231#0_0" slope="0.00"/>
        <vehicle id="7" x="316.38" y="656.43" angle="66.64" type="Sport" speed="0.00" pos="1.10" lane="-47360669#2_0" slope="0.00"/>
    </timestep>
    <timestep time="22.00">
        <vehicle id="0" x="462.02" y="520.28" angle="290.26" type="Truck" speed="11.66" pos="26.99" lane="47370578#3_0" slope="0.00"/>
        <vehicle id="1" x="530.70" y="465.08" angle="310.90" type="Truck" speed="12.29" pos="1.51" lane=":603095405_0_0" slope="0.00"/>
        <vehicle id="2" x="200.15" y="609.62" angle="219.74" type="Sport" speed="11.60" pos="0.57" lane=":603046244_0_0" slope="0.00"/>
        <vehicle id="3" x="304.28" y="361.06" angle="116.57" type="Car" speed="13.72" pos="41.51" lane="-47368026#2_0" slope="0.00"/>
        <vehicle id="4" x="330.65" y="677.05" angle="156.57" type="Car" speed="6.91" pos="9.10" lane="-47360670_0" slope="0.00"/>
        <vehicle id="5" x="509.83" y="369.58" angle="309.50" type="Sport" speed="5.79" pos="48.53" lane="47368030#1_0" slope="0.00"/>
        <vehicle id="6" x="450.91" y="286.59" angle="312.70" type="Truck" speed="3.96" pos="12.47" lane="-37975231#0_0" slope="0.00"/>
        <vehicle id="7" x="318.45" y="657.32" angle="66.64" type="Sport" speed="2.26" pos="3.36" lane="-47360669#2_0" slope="0.00"/>
    </timestep>
    <timestep time="23.00">
        <vehicle id="0" x="449.86" y="524.77" angle="290.26" type="Truck" speed="12.97" pos="39.96" lane="47370578#3_0" slope="0.00"/>
        <vehicle id="1" x="521.08" y="473.42" angle="310.97" type="Truck" speed="12.74" pos="3.15" lane="-47370606#3_0" slope="0.00"/>
        <vehicle id="2" x="196.60" y="596.79" angle="196.32" type="Sport" speed="13.68" pos="11.48" lane="47360654#0_0" slope="0.00"/>
        <vehicle id="3" x="317.68" y="354.36" angle="116.57" type="Car" speed="14.98" pos="56.49" lane="-47368026#2_0" slope="0.00"/>
        <vehicle id="4" x="331.86" y="674.26" angle="156.57" type="Car" speed="3.04" pos="12.15" lane="-47360670_0" slope="0.00"/>
        <vehicle id="5" x="503.23" y="374.36" angle="301.50" type="Sport" speed="8.16" pos="5.56" lane=":603087557_5_0" slope="0.00"/>
        <vehicle id="6" x="447.19" y="290.02" angle="312.70" type="Truck" speed="5.06" pos="17.53" lane="-37975231#0_0" slope="0.00"/>
        <vehicle id="7" x="322.74" y="659.17" angle="66.64" type="Sport" speed="4.67" pos="8.02" lane="-47360669#2_0" slope="0.00"/>
    </timestep>
    <timestep time="24.00">
        <vehicle id="0" x="436.80" y="529.58" angle="290.26" type="Truck" speed="13.92" pos="53.88" lane="47370578#3_0" slope="0.00"/>
        <vehicle id="1" x="511.67" y="481.62" angle="311.21" type="Truck" speed="12.48" pos="15.63" lane="-47370606#3_0" slope="0.00"/>
        <vehicle id="2" x="192.71" y="583.51" angle="196.32" type="Sport" speed="13.84" pos="25.32" lane="47360654#0_0" slope="0.00"/>
        <vehicle id="3" x="330.94" y="347.73" angle="116.57" type="Car" speed="14.83" pos="71.31" lane="-47368026#2_0" slope="0.00"/>
        <vehicle id="4" x="332.15" y="673.58" angle="156.57" type="Car" speed="0.73" pos="12.88" lane="-47360670_0" slope="0.00"/>
        <vehicle id="5" x="494.48" y="380.48" angle="311.20" type="Sport" speed="10.70" pos="1.62" lane="47370609#0_0" slope="0.00"/>
        <vehicle id="6" x="442.55" y="294.31" angle="312.70" type="Truck" speed="6.31" pos="23.84" lane="-37975231#0_0" slope="0.00"/>
        <vehicle id="7" x="329.12" y="661.93" angle="66.64" type="Sport" speed="6.94" pos="14.97" lane="-47360669#2_0" slope="0.00"/>
        <vehicle id="8" x="489.21" y="302.40" angle="221.67" type="Car" speed="0.00" pos="1.10" lane="-47370616_0" slope="0.00"/>
    </timestep>
    <timestep time="25.00">
        <vehicle id="0" x="425.08" y="537.11" angle="318.48" type="Truck" speed="14.36" pos="68.24" lane="47370578#3_0" slope="0.00"/>
        <vehicle id="1" x="503.56" y="488.99" angle="314.99" type="Truck" speed="10.99" pos="26.62" lane="-47370606#3_0" slope="0.00"/>
        <vehicle id="2" x="189.03" y="570.94" angle="196.32" type="Sport" speed="13.10" pos="38.42" lane="47360654#0_0" slope="0.00"/>
        <vehicle id="3" x="344.28" y="341.06" angle="116.57" type="Car" speed="14.91" pos="86.22" lane="-47368026#2_0" slope="0.00"/>
        <vehicle id="4" x="332.35" y="673.13" angle="156.57" type="Car" speed="0.50" pos="13.38" lane="-47360670_0" slope="0.00"/>
        <vehicle id="5" x="486.21" y="387.72" angle="311.20" type="Sport" speed="10.99" pos="12.62" lane="47370609#0_0" slope="0.00"/>
        <vehicle id="6" x="436.22" y="298.31" angle="292.71" type="Truck" speed="7.63" pos="5.41" lane=":446038580_4_0" slope="0.00"/>
        <vehicle id="7" x="337.00" y="665.29" angle="66.97" type="Sport" speed="8.57" pos="6.75" lane=":603046501_3_0" slope="0.00"/>
        <vehicle id="8" x="487.82" y="300.83" angle="221.67" type="Car" speed="2.09" pos="3.19" lane="-47370616_0" slope="0.00"/>
    </timestep>
    <timestep time="26.00">
        <vehicle id="0" x="423.86" y="549.73" angle="29.02" type="Truck" speed="14.15" pos="82.38" lane="47370578#3_0" slope="0.00"/>
        <vehicle id="1" x="499.56" y="493.44" angle="317.17" type="Truck" speed="5.99" pos="5.38" lane=":603095508_6_0" slope="0.00"/>
        <vehicle id="2" x="185.32" y="558.25" angle="196.32" type="Sport" speed="13.22" pos="51.64" lane="47360654#0_0" slope="0.00"/>
        <vehicle id="3" x="357.54" y="334.41" angle="117.11" type="Car" speed="14.84" pos="0.33" lane=":603095429_6_0" slope="0.00"/>
        <vehicle id="4" x="332.68" y="672.54" angle="152.69" type="Car" speed="0.68" pos="0.47" lane=":603046501_7_0" slope="0.00"/>
        <vehicle id="5" x="478.86" y="394.16" angle="311.20" type="Sport" speed="9.77" pos="22.39" lane="47370609#0_0" slope="0.00"/>
        <vehicle id="6" x="429.13" y="295.83" angle="231.41" type="Truck" speed="7.93" pos="13.34" lane=":446038580_4_0" slope="0.00"/>
        <vehicle id="7" x="346.66" y="669.38" angle="67.29" type="Sport" speed="10.49" pos="2.89" lane="-47360669#1_0" slope="0.00"/>
        <vehicle id="8" x="484.51" y="297.12" angle="221.67" type="Car" speed="4.98" pos="8.17" lane="-47370616_0" slope="0.00"/>
    </timestep>
    <timestep time="27.00">
        <vehicle id="0" x="431.75" y="561.96" angle="32.81" type="Truck" speed="14.56" pos="96.94" lane="47370578#3_0" slope="0.00"/>
        <vehicle id="1" x="493.54" y="491.68" angle="227.88" type="Truck" speed="6.97" pos="5.53" lane=":603095508_16_0" slope="0.00"/>
        <vehicle id="2" x="181.79" y="546.21" angle="196.32" type="Sport" speed="12.55" pos="64.19" lane="47360654#0_0" slope="0.00"/>
        <vehicle id="3" x="368.69" y="325.74" angle="135.15" type="Car" speed="14.22" pos="2.45" lane="-47368026#1_0" slope="0.00"/>
        <vehicle id="4" x="334.10" y="670.24" angle="148.35" type="Car" speed="2.70" pos="3.17" lane=":603046501_7_0" slope="0.00"/>
        <vehicle id="5" x="473.90" y="398.50" angle="311.20" type="Sport" speed="6.59" pos="28.98" lane="47370609#0_0" slope="0.00"/>
        <vehicle id="6" x="423.51" y="290.01" angle="223.20" type="Truck" speed="8.10" pos="7.34" lane="38569906#7_0" slope="0.00"/>
        <vehicle id="7" x="355.40" y="673.04" angle="67.29" type="Sport" speed="9.48" pos="12.37" lane="-47360669#1_0" slope="0.00"/>
        <vehicle id="8" x="479.57" y="291.57" angle="221.67" type="Car" speed="7.43" pos="15.59" lane="-47370616_0" slope="0.00"/>
    </timestep>
    <timestep time="28.00">
        <vehicle id="0" x="436.41" y="575.40" angle="12.87" type="Truck" speed="14.42" pos="111.35" lane="47370578#3_0" slope="0.00"/>
        <vehicle id="1" x="490.30" y="485.29" angle="204.62" type="Truck" speed="7.22" pos="12.74" lane=":603095508_16_0" slope="0.00"/>
        <vehicle id="2" x="178.11" y="533.63" angle="196.32" type="Sport" speed="13.11" pos="77.30" lane="47360654#0_0" slope="0.00"/>
        <vehicle id="3" x="379.07" y="315.31" angle="135.15" type="Car" speed="14.72" pos="17.17" lane="-47368026#1_0" slope="0.00"/>
        <vehicle id="4" x="335.71" y="668.73" angle="126.01" type="Car" speed="2.24" pos="5.42" lane=":603046501_7_0" slope="0.00"/>
        <vehicle id="5" x="471.63" y="402.38" angle="343.10" type="Sport" speed="4.60" pos="4.55" lane=":603095412_0_0" slope="0.00"/>
        <vehicle id="6" x="417.30" y="283.29" angle="222.48" type="Truck" speed="9.16" pos="5.89" lane=":603087542_1_0" slope="0.00"/>
        <vehicle id="7" x="360.33" y="674.73" angle="75.68" type="Sport" speed="5.22" pos="2.37" lane=":2370547827_6_0" slope="0.00"/>
        <vehicle id="8" x="472.94" y="284.11" angle="221.67" type="Car" speed="9.98" pos="25.57" lane="-47370616_0" slope="0.00"/>
        <vehicle id="9" x="374.18" y="680.90" angle="67.27" type="Truck" speed="0.00" pos="3.10" lane="-47360669#0_0" slope="0.00"/>
    </timestep>
    <timestep time="29.00">
        <vehicle id="0" x="439.01" y="589.72" angle="5.44" type="Truck" speed="14.57" pos="3.67" lane=":603095577_4_0" slope="0.00"/>
        <vehicle id="1" x="487.74" y="479.00" angle="205.63" type="Truck" speed="6.86" pos="6.52" lane="-47370578#2_0" slope="0.00"/>
        <vehicle id="2" x="174.30" y="520.64" angle="196.32" type="Sport" speed="13.54" pos="90.83" lane="47360654#0_0" slope="0.00"/>
        <vehicle id="3" x="389.10" y="305.50" angle="133.95" type="Car" speed="14.03" pos="9.20" lane=":603095417_3_0" slope="0.00"/>
        <vehicle id="4" x="337.95" y="667.62" angle="101.14" type="Car" speed="2.57" pos="7.99" lane=":603046501_7_0" slope="0.00"/>
        <vehicle id="5" x="473.33" y="406.37" angle="33.50" type="Sport" speed="4.43" pos="8.97" lane=":603095412_0_0" slope="0.00"/>
        <vehicle id="6" x="410.45" y="275.77" angle="222.06" type="Truck" speed="10.17" pos="1.77" lane="38569906#8_0" slope="0.00"/>
        <vehicle id="7" x="364.23" y="673.12" angle="128.17" type="Sport" speed="4.37" pos="6.73" lane=":2370547827_6_0" slope="0.00"/>
        <vehicle id="8" x="469.26" y="279.98" angle="221.67" type="Car" speed="5.52" pos="31.09" lane="-47370616_0" slope="0.00"/>
        <vehicle id="9" x="375.17" y="681.31" angle="67.27" type="Truck" speed="1.07" pos="4.17" lane="-47360669#0_0" slope="0.00"/>
    </timestep>
    <timestep time="30.00">
        <vehicle id="0" x="437.09" y="603.70" angle="347.79" type="Truck" speed="14.15" pos="3.75" lane="47370578#4_0" slope="0.00"/>
        <vehicle id="1" x="482.40" y="473.39" angle="223.63" type="Truck" speed="7.75" pos="14.27" lane="-47370578#2_0" slope="0.00"/>
        <vehicle id="10" x="114.17" y="312.01" angle="16.76" type="Sport" speed="0.00" pos="1.10" lane="-47360654#2_0" slope="0.00"/>
        <vehicle id="2" x="170.39" y="507.28" angle="196.32" type="Sport" speed="13.92" pos="104.75" lane="47360654#0_0" slope="0.00"/>
        <vehicle id="3" x="399.58" y="295.76" angle="132.73" type="Car" speed="14.30" pos="12.29" lane="-47368026#0_0" slope="0.00"/>
        <vehicle id="4" x="341.05" y="667.50" angle="79.31" type="Car" speed="3.15" pos="11.14" lane=":603046501_7_0" slope="0.00"/>
        <vehicle id="5" x="476.81" y="410.31" angle="41.56" type="Sport" speed="5.25" pos="5.20" lane="47370567#2_0" slope="0.00"/>
        <vehicle id="6" x="402.74" y="267.14" angle="221.78" type="Truck" speed="11.57" pos="13.34" lane="38569906#8_0" slope="0.00"/>
        <vehicle id="7" x="366.87" y="668.09" angle="155.62" type="Sport" speed="5.70" pos="3.25" lane="228371145_0" slope="0.00"/>
        <vehicle id="8" x="465.56" y="276.76" angle="241.99" type="Car" speed="4.96" pos="3.00" lane=":603095709_0_0" slope="0.00"/>
        <vehicle id="9" x="376.89" y="682.04" angle="67.27" type="Truck" speed="1.87" pos="6.04" lane="-47360669#0_0" slope="0.00"/>
    </timestep>
    <timestep time="31.00">
        <vehicle id="0" x="433.98" y="618.04" angle="347.79" type="Truck" speed="14.66" pos="18.41" lane="47370578#4_0" slope="0.00"/>
        <vehicle id="1" x="476.32" y="467.01" angle="223.63" type="Truck" speed="8.81" pos="23.08" lane="-47370578#2_0" slope="0.00"/>
        <vehicle id="10" x="114.79" y="314.07" angle="16.76" type="Sport" speed="2.15" pos="3.25" lane="-47360654#2_0" slope="0.00"/>
        <vehicle id="2" x="166.62" y="494.39" angle="196.32" type="Sport" speed="13.43" pos="118.18" lane="47360654#0_0" slope="0.00"/>
        <vehicle id="3" x="406.41" y="289.45" angle="132.73" type="Car" speed="9.30" pos="21.59" lane="-47368026#0_0" slope="0.00"/>
        <vehicle id="4" x="343.90" y="668.24" angle="75.46" type="Car" speed="2.95" pos="14.09" lane=":603046501_7_0" slope="0.00"/>
        <vehicle id="5" x="481.43" y="415.52" angle="41.56" type="Sport" speed="6.96" pos="12.16" lane="47370567#2_0" slope="0.00"/>
        <vehicle id="6" x="394.94" y="258.42" angle="221.78" type="Truck" speed="11.70" pos="25.04" lane="38569906#8_0" slope="0.00"/>
        <vehicle id="7" x="369.72" y="661.81" angle="155.62" type="Sport" speed="6.90" pos="10.15" lane="228371145_0" slope="0.00"/>
        <vehicle id="8" x="460.09" y="278.12" angle="304.33" type="Car" speed="6.01" pos="9.01" lane=":603095709_0_0" slope="0.00"/>
        <vehicle id="9" x="379.62" y="683.18" angle="67.27" type="Truck" speed="2.96" pos="9.00" lane="-47360669#0_0" slope="0.00"/>
    </timestep>
    <timestep time="32.00">
        <vehicle id="0" x="430.68" y="631.71" angle="346.14" type="Truck" speed="14.07" pos="32.48" lane="47370578#4_0" slope="0.00"/>
        <vehicle id="1" x="469.53" y="459.89" angle="223.63" type="Truck" speed="9.84" pos="32.91" lane="-47370578#2_0" slope="0.00"/>
        <vehicle id="10" x="116.26" y="318.95" angle="16.76" type="Sport" speed="5.09" pos="8.34" lane="-47360654#2_0" slope="0.00"/>
        <vehicle id="2" x="163.02" y="482.37" angle="197.07" type="Sport" speed="12.55" pos="5.94" lane=":603046238_0_0" slope="0.00"/>
        <vehicle id="3" x="410.55" y="285.63" angle="132.73" type="Car" speed="5.64" pos="27.23" lane="-47368026#0_0" slope="0.00"/>
        <vehicle id="4" x="348.41" y="670.11" angle="67.29" type="Car" speed="4.88" pos="4.79" lane="-47360669#1_0" slope="0.00"/>
        <vehicle id="5" x="487.47" y="422.33" angle="41.56" type="Sport" speed="9.10" pos="21.26" lane="47370567#2_0" slope="0.00"/>
        <vehicle id="6" x="390.73" y="253.24" angle="215.81" type="Truck" speed="6.70" pos="1.41" lane=":446038576_1_0" slope="0.00"/>
        <vehicle id="7" x="370.95" y="659.09" angle="155.62" type="Sport" speed="2.98" pos="13.13" lane="228371145_0" slope="0.00"/>
        <vehicle id="8" x="455.96" y="281.93" angle="312.70" type="Car" speed="5.62" pos="5.60" lane="-37975231#0_0" slope="0.00"/>
        <vehicle id="9" x="383.04" y="684.61" angle="67.27" type="Truck" speed="3.71" pos="12.71" lane="-47360669#0_0" slope="0.00"/>
    </timestep>
    <timestep time="33.00">
        <vehicle id="0" x="432.09" y="645.18" angle="35.79" type="Truck" speed="14.61" pos="4.85" lane=":368243972_2_0" slope="0.00"/>
        <vehicle id="1" x="461.83" y="451.81" angle="223.63" type="Truck" speed="11.16" pos="44.08" lane="-47370578#2_0" slope="0.00"/>
        <vehicle id="10" x="118.46" y="326.27" angle="16.76" type="Sport" speed="7.64" pos="15.99" lane="-47360654#2_0" slope="0.00"/>
        <vehicle id="11" x="621.45" y="451.31" angle="232.96" type="Truck" speed="0.00" pos="0.66" lane="702265271#0_0" slope="0.00"/>
        <vehicle id="2" x="159.11" y="469.87" angle="197.82" type="Sport" speed="13.10" pos="4.83" lane="47360654#1_0" slope="0.00"/>
        <vehicle id="3" x="417.89" y="282.25" angle="91.64" type="Car" speed="8.35" pos="7.42" lane=":603087542_7_0" slope="0.00"/>
        <vehicle id="4" x="351.44" y="671.38" angle="67.29" type="Car" speed="3.29" pos="8.08" lane="-47360669#1_0" slope="0.00"/>
        <vehicle id="5" x="494.88" y="430.69" angle="41.56" type="Sport" speed="11.17" pos="32.43" lane="47370567#2_0" slope="0.00"/>