<?xml version="1.0" encoding="UTF-8"?>

<!-- generated on 07/29/19 12:47:45 by Eclipse SUMO Version 1.1.0
<configuration xmlns:xsi="http://www.w3.org/2001/XMLSchema-instance" xsi:noNamespaceSchemaLocation="http://sumo.dlr.de/xsd/sumoConfiguration.xsd">

    <input>
        <net-file value="mapNetconvert.net.xml"/>
        <route-files value="models/random/routes.rou.xml"/>
    </input>

    <output>
        <fcd-output value="C:\Users\Neblis\Desktop\C4R\models\random\mapNetconvert.osm"/>
    </output>

</configuration>
-->

<fcd-export xmlns:xsi="http://www.w3.org/2001/XMLSchema-instance" xsi:noNamespaceSchemaLocation="http://sumo.dlr.de/xsd/fcd_file.xsd">
    <timestep time="0.00">
        <vehicle id="0" x="253.08" y="733.67" angle="140.86" type="Truck" speed="0.00" pos="3.10" lane="333598111#0_0" slope="0.00"/>
    </timestep>
    <timestep time="1.00">
        <vehicle id="0" x="253.57" y="733.06" angle="140.86" type="Truck" speed="0.78" pos="3.88" lane="333598111#0_0" slope="0.00"/>
    </timestep>
    <timestep time="2.00">
        <vehicle id="0" x="254.63" y="731.76" angle="140.86" type="Truck" speed="1.68" pos="5.55" lane="333598111#0_0" slope="0.00"/>
    </timestep>
    <timestep time="3.00">
        <vehicle id="0" x="256.55" y="729.40" angle="140.86" type="Truck" speed="3.05" pos="8.60" lane="333598111#0_0" slope="0.00"/>
        <vehicle id="1" x="284.37" y="125.15" angle="31.43" type="Truck" speed="0.00" pos="3.10" lane="447469848#1_0" slope="0.00"/>
    </timestep>
    <timestep time="4.00">
        <vehicle id="0" x="259.14" y="726.22" angle="140.86" type="Truck" speed="4.10" pos="12.70" lane="333598111#0_0" slope="0.00"/>
        <vehicle id="1" x="284.88" y="125.99" angle="31.43" type="Truck" speed="0.99" pos="4.09" lane="447469848#1_0" slope="0.00"/>
    </timestep>
    <timestep time="5.00">
        <vehicle id="0" x="262.59" y="721.98" angle="140.86" type="Truck" speed="5.47" pos="18.17" lane="333598111#0_0" slope="0.00"/>
        <vehicle id="1" x="285.85" y="127.58" angle="31.43" type="Truck" speed="1.87" pos="5.95" lane="447469848#1_0" slope="0.00"/>
    </timestep>
    <timestep time="6.00">
        <vehicle id="0" x="266.91" y="716.86" angle="138.64" type="Truck" speed="6.70" pos="24.87" lane="333598111#0_0" slope="0.00"/>
        <vehicle id="1" x="287.36" y="130.04" angle="31.43" type="Truck" speed="2.89" pos="8.84" lane="447469848#1_0" slope="0.00"/>
        <vehicle id="2" x="176.64" y="92.57" angle="137.71" type="Sport" speed="0.00" pos="1.10" lane="47457295#0_0" slope="0.00"/>
    </timestep>
    <timestep time="7.00">
        <vehicle id="0" x="271.91" y="711.17" angle="139.50" type="Truck" speed="7.58" pos="32.45" lane="333598111#0_0" slope="0.00"/>
        <vehicle id="1" x="289.59" y="133.70" angle="31.43" type="Truck" speed="4.28" pos="13.12" lane="447469848#1_0" slope="0.00"/>
        <vehicle id="2" x="177.98" y="91.09" angle="137.71" type="Sport" speed="1.99" pos="3.09" lane="47457295#0_0" slope="0.00"/>
    </timestep>
    <timestep time="8.00">
        <vehicle id="0" x="276.94" y="704.32" angle="143.71" type="Truck" speed="8.50" pos="40.95" lane="333598111#0_0" slope="0.00"/>
        <vehicle id="1" x="292.39" y="138.27" angle="31.43" type="Truck" speed="5.36" pos="18.48" lane="447469848#1_0" slope="0.00"/>
        <vehicle id="2" x="180.77" y="88.03" angle="137.71" type="Sport" speed="4.14" pos="7.23" lane="47457295#0_0" slope="0.00"/>
    </timestep>
    <timestep time="9.00">
        <vehicle id="0" x="282.06" y="697.35" angle="143.71" type="Truck" speed="8.64" pos="49.59" lane="333598111#0_0" slope="0.00"/>
        <vehicle id="1" x="295.89" y="144.01" angle="31.43" type="Truck" speed="6.72" pos="25.21" lane="447469848#1_0" slope="0.00"/>
        <vehicle id="2" x="184.69" y="83.72" angle="137.71" type="Sport" speed="5.83" pos="13.06" lane="47457295#0_0" slope="0.00"/>
    </timestep>
    <timestep time="10.00">
        <vehicle id="0" x="287.15" y="690.41" angle="143.71" type="Truck" speed="8.60" pos="58.20" lane="333598111#0_0" slope="0.00"/>
        <vehicle id="1" x="300.04" y="150.43" angle="33.72" type="Truck" speed="7.64" pos="4.83" lane=":cluster_451715001_607472169_12_0" slope="0.00"/>
        <vehicle id="2" x="189.19" y="76.28" angle="152.93" type="Sport" speed="8.76" pos="21.82" lane="47457295#0_0" slope="0.00"/>
    </timestep>
    <timestep time="11.00">
        <vehicle id="0" x="292.17" y="683.59" angle="143.71" type="Truck" speed="8.47" pos="66.67" lane="333598111#0_0" slope="0.00"/>
        <vehicle id="1" x="304.77" y="157.61" angle="31.86" type="Truck" speed="8.60" pos="13.43" lane=":cluster_451715001_607472169_12_0" slope="0.00"/>
        <vehicle id="2" x="194.33" y="66.22" angle="152.94" type="Sport" speed="11.30" pos="3.01" lane=":4447632279_0_0" slope="0.00"/>
    </timestep>
    <timestep time="12.00">
        <vehicle id="0" x="297.00" y="677.00" angle="143.71" type="Truck" speed="8.17" pos="74.84" lane="333598111#0_0" slope="0.00"/>
        <vehicle id="1" x="308.40" y="166.26" angle="16.42" type="Truck" speed="9.42" pos="3.33" lane="447469848#2_0" slope="0.00"/>
        <vehicle id="2" x="200.45" y="55.20" angle="127.18" type="Sport" speed="12.70" pos="10.50" lane="47457295#1_0" slope="0.00"/>
        <vehicle id="4" x="465.81" y="145.61" angle="56.47" type="Car" speed="0.00" pos="1.10" lane="47457271#1_0" slope="0.00"/>
    </timestep>
    <timestep time="13.00">
        <vehicle id="0" x="301.99" y="670.06" angle="145.40" type="Truck" speed="8.55" pos="83.39" lane="333598111#0_0" slope="0.00"/>
        <vehicle id="1" x="311.35" y="176.27" angle="16.42" type="Truck" speed="10.44" pos="13.78" lane="447469848#2_0" slope="0.00"/>
        <vehicle id="2" x="211.59" y="47.53" angle="96.49" type="Sport" speed="13.68" pos="24.18" lane="47457295#1_0" slope="0.00"/>
        <vehicle id="4" x="468.27" y="147.24" angle="56.47" type="Car" speed="2.95" pos="4.05" lane="47457271#1_0" slope="0.00"/>
    </timestep>
    <timestep time="14.00">
        <vehicle id="0" x="306.75" y="662.87" angle="146.50" type="Truck" speed="8.62" pos="92.01" lane="333598111#0_0" slope="0.00"/>
        <vehicle id="1" x="314.49" y="187.14" angle="15.73" type="Truck" speed="11.31" pos="5.62" lane=":603947245_4_0" slope="0.00"/>
        <vehicle id="2" x="225.21" y="47.92" angle="76.28" type="Sport" speed="13.80" pos="2.91" lane="47457295#2_0" slope="0.00"/>
        <vehicle id="4" x="471.98" y="149.82" angle="54.37" type="Car" speed="4.52" pos="2.74" lane=":603947294_4_0" slope="0.00"/>
    </timestep>
    <timestep time="15.00">
        <vehicle id="0" x="311.61" y="655.52" angle="146.50" type="Truck" speed="8.81" pos="100.82" lane="333598111#0_0" slope="0.00"/>
        <vehicle id="1" x="317.73" y="198.93" angle="15.10" type="Truck" speed="12.23" pos="6.68" lane="447469848#3_0" slope="0.00"/>
        <vehicle id="2" x="234.71" y="57.16" angle="41.14" type="Sport" speed="13.54" pos="10.83" lane=":603947953_1_0" slope="0.00"/>
        <vehicle id="4" x="477.42" y="154.70" angle="44.41" type="Car" speed="7.32" pos="10.06" lane=":603947294_4_0" slope="0.00"/>
        <vehicle id="5" x="298.89" y="274.79" angle="117.80" type="Sport" speed="0.00" pos="1.10" lane="47751705#0_0" slope="0.00"/>
    </timestep>
    <timestep time="16.00">
        <vehicle id="0" x="316.44" y="648.23" angle="146.50" type="Truck" speed="8.74" pos="109.56" lane="333598111#0_0" slope="0.00"/>
        <vehicle id="1" x="321.12" y="210.81" angle="16.45" type="Truck" speed="12.36" pos="7.63" lane=":603947228_3_0" slope="0.00"/>
        <vehicle id="2" x="243.63" y="67.48" angle="40.86" type="Sport" speed="13.64" pos="2.14" lane=":4447632281_0_0" slope="0.00"/>
        <vehicle id="4" x="483.37" y="162.36" angle="36.61" type="Car" speed="9.71" pos="5.71" lane="47457271#2_0" slope="0.00"/>
        <vehicle id="5" x="301.25" y="273.54" angle="117.80" type="Sport" speed="2.67" pos="3.77" lane="47751705#0_0" slope="0.00"/>
    </timestep>
    <timestep time="17.00">
        <vehicle id="0" x="319.20" y="640.00" angle="163.09" type="Truck" speed="8.71" pos="118.27" lane="333598111#0_0" slope="0.00"/>
        <vehicle id="1" x="324.85" y="222.70" angle="17.78" type="Truck" speed="12.46" pos="9.15" lane="447469848#4_0" slope="0.00"/>
        <vehicle id="2" x="252.38" y="78.27" angle="35.69" type="Sport" speed="13.90" pos="6.98" lane=":cluster_451714999_603947387_603947389_2_0" slope="0.00"/>
        <vehicle id="4" x="490.73" y="172.27" angle="36.61" type="Car" speed="12.34" pos="18.05" lane="47457271#2_0" slope="0.00"/>
        <vehicle id="5" x="305.20" y="271.46" angle="117.80" type="Sport" speed="4.47" pos="8.23" lane="47751705#0_0" slope="0.00"/>
    </timestep>
    <timestep time="18.00">
        <vehicle id="0" x="321.63" y="632.00" angle="163.09" type="Truck" speed="8.36" pos="126.64" lane="333598111#0_0" slope="0.00"/>
        <vehicle id="1" x="328.69" y="234.65" angle="17.78" type="Truck" speed="12.55" pos="21.70" lane="447469848#4_0" slope="0.00"/>
        <vehicle id="2" x="259.67" y="88.59" angle="34.90" type="Sport" speed="12.63" pos="19.61" lane=":cluster_451714999_603947387_603947389_2_0" slope="0.00"/>
        <vehicle id="4" x="499.17" y="183.62" angle="36.61" type="Car" speed="14.14" pos="32.19" lane="47457271#2_0" slope="0.00"/>
        <vehicle id="5" x="310.91" y="268.57" angle="116.68" type="Sport" speed="6.40" pos="5.11" lane=":603947239_2_0" slope="0.00"/>
        <vehicle id="6" x="408.30" y="132.27" angle="125.70" type="Truck" speed="0.00" pos="3.10" lane="-228371106#3_0" slope="0.00"/>
    </timestep>
    <timestep time="19.00">
        <vehicle id="0" x="323.84" y="624.15" angle="164.85" type="Truck" speed="8.16" pos="134.79" lane="333598111#0_0" slope="0.00"/>
        <vehicle id="1" x="332.56" y="246.73" angle="17.78" type="Truck" speed="12.69" pos="34.39" lane="447469848#4_0" slope="0.00"/>
        <vehicle id="2" x="267.20" y="99.38" angle="35.12" type="Sport" speed="13.16" pos="2.76" lane="447469848#0_0" slope="0.00"/>
        <vehicle id="4" x="507.86" y="195.32" angle="36.61" type="Car" speed="14.58" pos="46.77" lane="47457271#2_0" slope="0.00"/>
        <vehicle id="5" x="319.10" y="264.51" angle="115.49" type="Sport" speed="9.14" pos="2.69" lane="47751705#1_0" slope="0.00"/>
        <vehicle id="6" x="408.89" y="131.84" angle="125.70" type="Truck" speed="0.73" pos="3.83" lane="-228371106#3_0" slope="0.00"/>
    </timestep>
    <timestep time="20.00">
        <vehicle id="0" x="326.11" y="615.75" angle="164.85" type="Truck" speed="8.70" pos="143.50" lane="333598111#0_0" slope="0.00"/>
        <vehicle id="1" x="336.97" y="258.85" angle="25.58" type="Truck" speed="12.93" pos="7.04" lane=":603947241_2_0" slope="0.00"/>
        <vehicle id="2" x="275.03" y="110.52" angle="35.12" type="Sport" speed="13.62" pos="16.37" lane="447469848#0_0" slope="0.00"/>
        <vehicle id="4" x="519.46" y="202.16" angle="72.03" type="Car" speed="14.08" pos="60.85" lane="47457271#2_0" slope="0.00"/>
        <vehicle id="5" x="325.18" y="261.61" angle="115.49" type="Sport" speed="6.73" pos="9.42" lane="47751705#1_0" slope="0.00"/>
        <vehicle id="6" x="410.60" y="130.61" angle="125.70" type="Truck" speed="2.11" pos="5.94" lane="-228371106#3_0" slope="0.00"/>
    </timestep>
    <timestep time="21.00">
        <vehicle id="0" x="328.48" y="607.99" angle="159.93" type="Truck" speed="8.18" pos="151.68" lane="333598111#0_0" slope="0.00"/>
        <vehicle id="1" x="343.16" y="270.05" angle="28.96" type="Truck" speed="12.80" pos="10.58" lane="447469848#5_0" slope="0.00"/>
        <vehicle id="2" x="281.83" y="121.06" angle="32.57" type="Sport" speed="12.55" pos="11.24" lane=":5446766504_4_0" slope="0.00"/>
        <vehicle id="4" x="533.66" y="206.77" angle="72.03" type="Car" speed="14.94" pos="75.78" lane="47457271#2_0" slope="0.00"/>
        <vehicle id="5" x="330.52" y="258.42" angle="135.15" type="Sport" speed="6.29" pos="2.82" lane=":603947241_4_0" slope="0.00"/>
        <vehicle id="6" x="413.35" y="128.64" angle="125.70" type="Truck" speed="3.39" pos="9.33" lane="-228371106#3_0" slope="0.00"/>
    </timestep>
    <timestep time="22.00">
        <vehicle id="0" x="334.52" y="601.63" angle="136.42" type="Truck" speed="8.77" pos="160.44" lane="333598111#0_0" slope="0.00"/>
        <vehicle id="1" x="349.45" y="281.40" angle="28.96" type="Truck" speed="12.98" pos="23.56" lane="447469848#5_0" slope="0.00"/>
        <vehicle id="2" x="289.04" y="132.79" angle="31.43" type="Sport" speed="13.76" pos="12.06" lane="447469848#1_0" slope="0.00"/>
        <vehicle id="4" x="545.48" y="214.47" angle="51.60" type="Car" speed="14.19" pos="12.54" lane=":cluster_603947298_603947305_603947327_6_0" slope="0.00"/>
        <vehicle id="5" x="330.93" y="252.13" angle="197.78" type="Sport" speed="6.69" pos="1.25" lane="-447469848#4_0" slope="0.00"/>
        <vehicle id="6" x="417.12" y="125.93" angle="125.70" type="Truck" speed="4.64" pos="13.97" lane="-228371106#3_0" slope="0.00"/>
    </timestep>
    <timestep time="23.00">
        <vehicle id="0" x="340.26" y="595.60" angle="136.42" type="Truck" speed="8.32" pos="168.77" lane="333598111#0_0" slope="0.00"/>
        <vehicle id="1" x="355.48" y="292.73" angle="27.16" type="Truck" speed="12.83" pos="36.39" lane="447469848#5_0" slope="0.00"/>
        <vehicle id="2" x="295.83" y="143.90" angle="31.43" type="Sport" speed="13.02" pos="25.08" lane="447469848#1_0" slope="0.00"/>
        <vehicle id="4" x="556.97" y="223.67" angle="51.18" type="Car" speed="14.72" pos="27.26" lane=":cluster_603947298_603947305_603947327_6_0" slope="0.00"/>
        <vehicle id="5" x="328.16" y="243.51" angle="197.78" type="Sport" speed="9.05" pos="10.30" lane="-447469848#4_0" slope="0.00"/>
        <vehicle id="6" x="421.82" y="122.55" angle="125.70" type="Truck" speed="5.80" pos="19.77" lane="-228371106#3_0" slope="0.00"/>
    </timestep>
    <timestep time="24.00">
        <vehicle id="0" x="346.05" y="589.52" angle="136.42" type="Truck" speed="8.40" pos="177.17" lane="333598111#0_0" slope="0.00"/>
        <vehicle id="1" x="361.27" y="304.00" angle="27.16" type="Truck" speed="12.67" pos="49.06" lane="447469848#5_0" slope="0.00"/>
        <vehicle id="2" x="305.79" y="151.86" angle="66.94" type="Sport" speed="13.16" pos="10.21" lane=":cluster_451715001_607472169_11_0" slope="0.00"/>
        <vehicle id="4" x="569.06" y="230.19" angle="67.22" type="Car" speed="13.80" pos="7.00" lane="47457281_0" slope="0.00"/>
        <vehicle id="5" x="324.67" y="232.63" angle="197.78" type="Sport" speed="11.43" pos="21.73" lane="-447469848#4_0" slope="0.00"/>
        <vehicle id="6" x="424.57" y="121.69" angle="107.09" type="Truck" speed="3.03" pos="1.56" lane=":603947293_5_0" slope="0.00"/>
        <vehicle id="8" x="294.43" y="147.75" angle="211.41" type="Car" speed="0.00" pos="1.10" lane="-447469848#1_0" slope="0.00"/>
    </timestep>
    <timestep time="25.00">
        <vehicle id="0" x="351.35" y="582.81" angle="145.02" type="Truck" speed="8.57" pos="185.74" lane="333598111#0_0" slope="0.00"/>
        <vehicle id="1" x="366.90" y="314.99" angle="27.16" type="Truck" speed="12.35" pos="61.41" lane="447469848#5_0" slope="0.00"/>
        <vehicle id="2" x="318.32" y="153.76" angle="86.96" type="Sport" speed="12.72" pos="22.94" lane=":cluster_451715001_607472169_11_0" slope="0.00"/>
        <vehicle id="4" x="582.78" y="235.95" angle="67.22" type="Car" speed="14.88" pos="21.88" lane="47457281_0" slope="0.00"/>
        <vehicle id="5" x="320.32" y="219.03" angle="197.78" type="Sport" speed="14.28" pos="36.00" lane="-447469848#4_0" slope="0.00"/>
        <vehicle id="6" x="425.00" y="124.01" angle="14.07" type="Truck" speed="2.82" pos="2.04" lane=":603947293_8_0" slope="0.00"/>
        <vehicle id="8" x="293.35" y="145.99" angle="211.41" type="Car" speed="2.06" pos="3.16" lane="-447469848#1_0" slope="0.00"/>
    </timestep>
    <timestep time="26.00">
        <vehicle id="0" x="356.04" y="576.11" angle="145.02" type="Truck" speed="8.18" pos="193.92" lane="333598111#0_0" slope="0.00"/>
        <vehicle id="1" x="373.01" y="326.11" angle="30.80" type="Truck" speed="12.69" pos="5.71" lane=":cluster_603947226_603947249_9_0" slope="0.00"/>
        <vehicle id="2" x="331.67" y="154.12" angle="89.64" type="Sport" speed="13.35" pos="7.57" lane="-228371106#5_0" slope="0.00"/>
        <vehicle id="4" x="595.76" y="237.15" angle="110.24" type="Car" speed="13.97" pos="35.85" lane="47457281_0" slope="0.00"/>
        <vehicle id="5" x="316.35" y="205.95" angle="196.46" type="Sport" speed="13.67" pos="9.40" lane=":603947228_1_0" slope="0.00"/>
        <vehicle id="6" x="422.99" y="125.65" angle="312.97" type="Truck" speed="2.63" pos="2.33" lane="228371106#3_0" slope="0.00"/>
        <vehicle id="8" x="291.40" y="142.79" angle="211.41" type="Car" speed="3.75" pos="6.91" lane="-447469848#1_0" slope="0.00"/>
    </timestep>
    <timestep time="27.00">
        <vehicle id="0" x="359.95" y="569.02" angle="158.41" type="Truck" speed="8.15" pos="202.07" lane="333598111#0_0" slope="0.00"/>
        <vehicle id="1" x="379.53" y="337.12" angle="30.22" type="Truck" speed="12.79" pos="4.03" lane="447469848#7_0" slope="0.00"/>
        <vehicle id="2" x="345.55" y="154.21" angle="89.64" type="Sport" speed="13.88" pos="21.45" lane="-228371106#5_0" slope="0.00"/>
        <vehicle id="4" x="605.37" y="233.61" angle="110.24" type="Car" speed="10.24" pos="46.09" lane="47457281_0" slope="0.00"/>
        <vehicle id="5" x="312.86" y="193.16" angle="195.19" type="Sport" speed="13.26" pos="0.16" lane=":603947245_0_0" slope="0.00"/>
        <vehicle id="6" x="419.99" y="127.81" angle="305.69" type="Truck" speed="3.71" pos="6.04" lane="228371106#3_0" slope="0.00"/>
        <vehicle id="8" x="288.20" y="137.55" angle="211.41" type="Car" speed="6.13" pos="13.05" lane="-447469848#1_0" slope="0.00"/>
        <vehicle id="9" x="492.82" y="114.27" angle="309.57" type="Truck" speed="0.00" pos="3.10" lane="47457272_0" slope="0.00"/>
    </timestep>
    <timestep time="28.00">
        <vehicle id="0" x="362.90" y="561.19" angle="160.96" type="Truck" speed="8.37" pos="210.44" lane="333598111#0_0" slope="0.00"/>
        <vehicle id="1" x="385.84" y="347.95" angle="30.22" type="Truck" speed="12.53" pos="16.57" lane="447469848#7_0" slope="0.00"/>
        <vehicle id="2" x="358.52" y="154.29" angle="89.64" type="Sport" speed="12.97" pos="34.41" lane="-228371106#5_0" slope="0.00"/>
        <vehicle id="4" x="610.29" y="231.80" angle="110.24" type="Car" speed="5.24" pos="51.33" lane="47457281_0" slope="0.00"/>
        <vehicle id="5" x="309.00" y="179.60" angle="196.41" type="Sport" speed="14.10" pos="3.16" lane="-447469848#2_0" slope="0.00"/>
        <vehicle id="6" x="415.91" y="130.74" angle="305.69" type="Truck" speed="5.02" pos="11.06" lane="228371106#3_0" slope="0.00"/>
        <vehicle id="8" x="283.66" y="130.12" angle="211.41" type="Car" speed="8.71" pos="21.76" lane="-447469848#1_0" slope="0.00"/>
        <vehicle id="9" x="492.22" y="114.77" angle="309.57" type="Truck" speed="0.78" pos="3.88" lane="47457272_0" slope="0.00"/>
    </timestep>
    <timestep time="29.00">
        <vehicle id="0" x="365.12" y="552.92" angle="164.97" type="Truck" speed="8.57" pos="219.01" lane="333598111#0_0" slope="0.00"/>
        <vehicle id="1" x="392.05" y="358.62" angle="30.22" type="Truck" speed="12.35" pos="28.92" lane="447469848#7_0" slope="0.00"/>
        <vehicle id="2" x="371.77" y="154.26" angle="93.22" type="Sport" speed="13.26" pos="3.23" lane=":451715021_6_0" slope="0.00"/>
        <vehicle id="4" x="613.17" y="232.44" angle="49.77" type="Car" speed="3.23" pos="0.31" lane=":603947342_5_0" slope="0.00"/>
        <vehicle id="5" x="305.82" y="168.81" angle="196.41" type="Sport" speed="11.25" pos="14.41" lane="-447469848#2_0" slope="0.00"/>
        <vehicle id="6" x="411.08" y="134.21" angle="305.69" type="Truck" speed="5.95" pos="17.00" lane="228371106#3_0" slope="0.00"/>
        <vehicle id="8" x="280.05" y="124.21" angle="211.41" type="Car" speed="6.91" pos="28.68" lane="-447469848#1_0" slope="0.00"/>
        <vehicle id="9" x="490.99" y="115.79" angle="309.57" type="Truck" speed="1.59" pos="5.47" lane="47457272_0" slope="0.00"/>
    </timestep>
    <timestep time="30.00">
        <vehicle id="0" x="367.25" y="545.00" angle="164.97" type="Truck" speed="8.20" pos="227.21" lane="333598111#0_0" slope="0.00"/>
        <vehicle id="1" x="398.46" y="369.62" angle="30.22" type="Truck" speed="12.73" pos="41.65" lane="447469848#7_0" slope="0.00"/>
        <vehicle id="10" x="271.35" y="420.90" angle="20.31" type="Sport" speed="0.00" pos="1.10" lane="-228371126#1_0" slope="0.00"/>
        <vehicle id="2" x="383.07" y="148.47" angle="121.79" type="Sport" speed="12.82" pos="6.06" lane="-228371106#4_0" slope="0.00"/>
        <vehicle id="4" x="611.24" y="234.85" angle="290.26" type="Car" speed="3.38" pos="1.05" lane="-47457281_0" slope="0.00"/>
        <vehicle id="5" x="304.49" y="162.78" angle="175.19" type="Sport" speed="6.25" pos="1.19" lane=":cluster_451715001_607472169_3_0" slope="0.00"/>
        <vehicle id="6" x="405.44" y="138.15" angle="304.00" type="Truck" speed="6.88" pos="2.64" lane=":cluster_2370547882_603947862_0_0" slope="0.00"/>
        <vehicle id="8" x="281.44" y="121.89" angle="99.39" type="Car" speed="3.30" pos="0.90" lane=":5446766504_6_0" slope="0.00"/>
        <vehicle id="9" x="489.00" y="117.43" angle="309.57" type="Truck" speed="2.58" pos="8.05" lane="47457272_0" slope="0.00"/>
    </timestep>
    <timestep time="31.00">
        <vehicle id="0" x="369.43" y="536.88" angle="164.97" type="Truck" speed="8.41" pos="235.62" lane="333598111#0_0" slope="0.00"/>
        <vehicle id="1" x="404.82" y="380.54" angle="30.22" type="Truck" speed="12.63" pos="54.28" lane="447469848#7_0" slope="0.00"/>
        <vehicle id="10" x="272.39" y="423.69" angle="20.31" type="Sport" speed="2.98" pos="4.08" lane="-228371126#1_0" slope="0.00"/>
        <vehicle id="2" x="394.31" y="141.50" angle="121.79" type="Sport" speed="13.21" pos="19.27" lane="-228371106#4_0" slope="0.00"/>
        <vehicle id="4" x="606.58" y="236.57" angle="290.26" type="Car" speed="4.97" pos="6.01" lane="-47457281_0" slope="0.00"/>
        <vehicle id="5" x="304.59" y="161.54" angle="175.19" type="Sport" speed="1.25" pos="2.44" lane=":cluster_451715001_607472169_3_0" slope="0.00"/>
        <vehicle id="6" x="398.88" y="142.43" angle="302.09" type="Truck" speed="7.83" pos="2.57" lane="228371106#4_0" slope="0.00"/>
        <vehicle id="8" x="283.32" y="123.43" angle="31.43" type="Car" speed="2.53" pos="1.09" lane="447469848#1_0" slope="0.00"/>
        <vehicle id="9" x="485.99" y="119.92" angle="309.57" type="Truck" speed="3.91" pos="11.96" lane="47457272_0" slope="0.00"/>
    </timestep>
    <timestep time="32.00">
        <vehicle id="0" x="371.53" y="529.01" angle="165.23" type="Truck" speed="8.14" pos="243.76" lane="333598111#0_0" slope="0.00"/>
        <vehicle id="1" x="411.07" y="391.26" angle="30.22" type="Truck" speed="12.41" pos="66.69" lane="447469848#7_0" slope="0.00"/>
        <vehicle id="10" x="274.05" y="428.18" angle="20.31" type="Sport" speed="4.78" pos="8.86" lane="-228371126#1_0" slope="0.00"/>
        <vehicle id="2" x="405.66" y="134.16" angle="123.77" type="Sport" speed="13.52" pos="7.55" lane=":cluster_2370547882_603947862_6_0" slope="0.00"/>
        <vehicle id="4" x="599.34" y="239.24" angle="290.26" type="Car" speed="7.71" pos="13.72" lane="-47457281_0" slope="0.00"/>
        <vehicle id="5" x="304.63" y="161.16" angle="175.19" type="Sport" speed="0.38" pos="2.82" lane=":cluster_451715001_607472169_3_0" slope="0.00"/>
        <vehicle id="6" x="391.23" y="147.17" angle="301.80" type="Truck" speed="9.00" pos="11.56" lane="228371106#4_0" slope="0.00"/>
        <vehicle id="8" x="285.83" y="127.55" angle="31.43" type="Car" speed="4.83" pos="5.92" lane="447469848#1_0" slope="0.00"/>
        <vehicle id="9" x="482.16" y="123.08" angle="309.57" type="Truck" speed="4.97" pos="16.93" lane="47457272_0" slope="0.00"/>
    </timestep>
    <timestep time="33.00">
        <vehicle id="0" x="373.14" y="520.33" angle="169.53" type="Truck" speed="8.83" pos="252.59" lane="333598111#0_0" slope="0.00"/>
        <vehicle id="1" x="418.70" y="401.06" angle="51.44" type="Truck" speed="12.57" pos="10.50" lane=":452056408_3_0" slope="0.00"/>
        <vehicle id="10" x="275.07" y="430.95" angle="20.31" type="Sport" speed="2.96" pos="11.82" lane="-228371126#1_0" slope="0.00"/>
        <vehicle id="11" x="351.49" y="349.40" angle="27.96" type="Truck" speed="0.00" pos="3.10" lane="47457294#2_0" slope="0.00"/>
        <vehicle id="2" x="415.43" y="127.15" angle="125.70" type="Sport" speed="12.03" pos="11.89" lane="-228371106#3_0" slope="0.00"/>
        <vehicle id="4" x="589.98" y="242.45" angle="275.60" type="Car" speed="9.98" pos="23.71" lane="-47457281_0" slope="0.00"/>
        <vehicle id="5" x="304.65" y="160.85" angle="175.19" type="Sport" speed="0.31" pos="3.13" lane=":cluster_451715001_607472169_3_0" slope="0.00"/>
        <vehicle id="6" x="383.11" y="152.21" angle="301.80" type="Truck" speed="9.56" pos="21.12" lane="228371106#4_0" slope="0.00"/>
        <vehicle id="8" x="289.59" y="133.70" angle="31.43" type="Car" speed="7.21" pos="13.12" lane="447469848#1_0" slope="0.00"/>
        <vehicle id="9" x="477.75" y="126.73" angle="309.57" type="Truck" speed="5.73" pos="22.65" lane="47457272_0" slope="0.00"/>
    </timestep>
    <timestep time="34.00">
        <vehicle id="0" x="374.64" y="512.21" angle="169.53" type="Truck" speed="8.26" pos="260.85" lane="333598111#0_0" slope="0.00"/>
        <vehicle id="1" x="428.52" y="408.61" angle="42.27" type="Truck" speed="12.44" pos="2.93" lane=":cluster_2370547955_2370547960_603947258_603947278_7_0" slope="0.00"/>
        <vehicle id="10" x="274.64" y="434.06" angle="325.35" type="Sport" speed="3.42" pos="2.06" lane=":2370547967_4_0" slope="0.00"/>
        <vehicle id="11" x="352.08" y="350.51" angle="27.96" type="Truck" speed="1.25" pos="4.35" lane="47457294#2_0" slope="0.00"/>
        <vehicle id="2" x="422.28" y="122.22" angle="125.70" type="Sport" speed="8.45" pos="20.33" lane="-228371106#3_0" slope="0.00"/>
        <vehicle id="4" x="578.68" y="237.70" angle="247.24" type="Car" speed="12.25" pos="35.96" lane="-47457281_0" slope="0.00"/>
        <vehicle id="5" x="304.65" y="160.85" angle="175.19" type="Sport" speed="0.00" pos="3.13" lane=":cluster_451715001_607472169_3_0" slope="0.00"/>
        <vehicle id="6" x="379.25" y="154.63" angle="302.19" type="Truck" speed="4.56" pos="0.44" lane=":451715021_3_0" slope="0.00"/>
        <vehicle id="8" x="294.30" y="141.41" angle="31.43" type="Car" speed="9.03" pos="22.16" lane="447469848#1_0" slope="0.00"/>
        <vehicle id="9" x="472.47" y="131.09" angle="309.57" type="Truck" speed="6.85" pos="29.50" lane="47457272_0" slope="0.00"/>
    </timestep>
    <timestep time="35.00">
        <vehicle id="0" x="376.22" y="503.63" angle="169.53" type="Truck" speed="8.72" pos="269.57" lane="333598111#0_0" slope="0.00"/>
        <vehicle id="1" x="435.03" y="419.72" angle="25.44" type="Truck" speed="12.94" pos="15.87" lane=":cluster_2370547955_2370547960_603947258_603947278_7_0" slope="0.00"/>
        <vehicle id="10" x="272.24" y="432.59" angle="210.62" type="Sport" speed="3.19" pos="0.57" lane="228371126#1_1" slope="0.00"/>
        <vehicle id="11" x="353.06" y="352.36" angle="27.96" type="Truck" speed="2.09" pos="6.45" lane="47457294#2_0" slope="0.00"/>
        <vehicle id="2" x="425.90" y="121.16" angle="83.34" type="Sport" speed="3.89" pos="2.99" lane=":603947293_4_0" slope="0.00"/>
        <vehicle id="4" x="565.81" y="232.31" angle="247.24" type="Car" speed="13.95" pos="49.92" lane="-47457281_0" slope="0.00"/>
        <vehicle id="5" x="304.65" y="160.85" angle="175.19" type="Sport" speed="0.00" pos="3.13" lane=":cluster_451715001_607472169_3_0" slope="0.00"/>
        <vehicle id="6" x="376.36" y="157.56" angle="319.99" type="Truck" speed="4.23" pos="4.67" lane=":451715021_3_0" slope="0.00"/>
        <vehicle id="8" x="300.42" y="150.99" angle="34.46" type="Car" speed="11.37" pos="5.50" lane=":cluster_451715001_607472169_12_0" slope="0.00"/>
        <vehicle id="9" x="466.35" y="136.15" angle="309.57" type="Truck" speed="7.94" pos="37.44" lane="47457272_0" slope="0.00"/>
    </timestep>
    <timestep time="36.00">
        <vehicle id="0" x="373.93" y="495.41" angle="201.78" type="Truck" speed="8.75" pos="278.32" lane="333598111#0_0" slope="0.00"/>
        <vehicle id="1" x="439.80" y="431.60" angle="20.22" type="Truck" speed="12.81" pos="3.00" lane=":2370547965_0_0" slope="0.00"/>
        <vehicle id="10" x="270.30" y="427.28" angle="200.34" type="Sport" speed="5.00" pos="5.57" lane="228371126#1_1" slope="0.00"/>
        <vehicle id="11" x="354.64" y="355.32" angle="27.96" type="Truck" speed="3.36" pos="9.81" lane="47457294#2_0" slope="0.00"/>
        <vehicle id="2" x="431.18" y="122.95" angle="62.60" type="Sport" speed="5.62" pos="4.97" lane=":603947293_7_0" slope="0.00"/>
        <vehicle id="5" x="304.65" y="160.85" angle="175.19" type="Sport" speed="0.00" pos="3.13" lane=":cluster_451715001_607472169_3_0" slope="0.00"/>
        <vehicle id="6" x="376.84" y="161.52" angle="7.77" type="Truck" speed="3.99" pos="0.31" lane=":603947243_18_0" slope="0.00"/>
        <vehicle id="8" x="307.45" y="163.04" angle="24.19" type="Car" speed="13.99" pos="19.49" lane=":cluster_451715001_607472169_12_0" slope="0.00"/>