<?xml version="1.0" encoding="UTF-8"?>

<!-- generated on 07/31/19 12:12:24 by Eclipse SUMO Version 1.1.0
<configuration xmlns:xsi="http://www.w3.org/2001/XMLSchema-instance" xsi:noNamespaceSchemaLocation="http://sumo.dlr.de/xsd/sumoConfiguration.xsd">

    <input>
        <net-file value="mapNetconvert.net.xml"/>
        <route-files value="models/random/routes.rou.xml"/>
    </input>

    <output>
        <fcd-output value="C:\Users\Neblis\Desktop\C4R\models\random\mapNetconvert.fcd"/>
    </output>

</configuration>
-->

<fcd-export xmlns:xsi="http://www.w3.org/2001/XMLSchema-instance" xsi:noNamespaceSchemaLocation="http://sumo.dlr.de/xsd/fcd_file.xsd">
    <timestep time="0.00">
        <vehicle id="0" x="1704.58" y="1488.60" angle="164.60" type="Truck" speed="0.00" pos="3.10" lane="4520001_0" slope="0.00"/>
    </timestep>
    <timestep time="1.00">
        <vehicle id="0" x="1704.96" y="1487.25" angle="164.60" type="Truck" speed="1.40" pos="4.50" lane="4520001_0" slope="0.00"/>
    </timestep>
    <timestep time="2.00">
        <vehicle id="0" x="1705.70" y="1484.54" angle="164.60" type="Truck" speed="2.80" pos="0.08" lane=":561346_3_0" slope="0.00"/>
    </timestep>
    <timestep time="3.00">
        <vehicle id="0" x="1706.79" y="1480.52" angle="164.81" type="Truck" speed="4.17" pos="4.25" lane=":561346_3_0" slope="0.00"/>
        <vehicle id="1" x="1621.94" y="1596.54" angle="51.50" type="Truck" speed="0.00" pos="2.43" lane="8657992#3_0" slope="0.00"/>
    </timestep>
    <timestep time="4.00">
        <vehicle id="0" x="1708.16" y="1475.48" angle="164.81" type="Truck" speed="5.22" pos="9.47" lane=":561346_3_0" slope="0.00"/>
        <vehicle id="1" x="1622.51" y="1597.34" angle="46.13" type="Truck" speed="0.99" pos="0.99" lane=":61766660_2_0" slope="0.00"/>
    </timestep>
    <timestep time="5.00">
        <vehicle id="0" x="1708.56" y="1474.00" angle="164.81" type="Truck" speed="1.53" pos="11.00" lane=":561346_3_0" slope="0.00"/>
        <vehicle id="1" x="1622.85" y="1599.12" angle="20.99" type="Truck" speed="1.87" pos="2.85" lane=":61766660_2_0" slope="0.00"/>
    </timestep>
    <timestep time="6.00">
        <vehicle id="0" x="1708.57" y="1473.98" angle="164.81" type="Truck" speed="0.03" pos="11.03" lane=":561346_3_0" slope="0.00"/>
        <vehicle id="1" x="1621.81" y="1601.79" angle="339.64" type="Truck" speed="2.89" pos="5.74" lane=":61766660_2_0" slope="0.00"/>
        <vehicle id="2" x="2657.90" y="2601.54" angle="131.62" type="Sport" speed="0.00" pos="0.20" lane="49906253#1_0" slope="0.00"/>
    </timestep>
    <timestep time="7.00">
        <vehicle id="0" x="1708.57" y="1473.97" angle="164.81" type="Truck" speed="0.00" pos="11.03" lane=":561346_3_0" slope="0.00"/>
        <vehicle id="1" x="1619.41" y="1605.32" angle="324.90" type="Truck" speed="4.28" pos="2.20" lane="156298617#2_0" slope="0.00"/>
        <vehicle id="2" x="2659.43" y="2600.26" angle="129.49" type="Sport" speed="1.99" pos="1.99" lane=":2193082221_2_0" slope="0.00"/>
    </timestep>
    <timestep time="8.00">
        <vehicle id="0" x="1708.57" y="1473.97" angle="164.81" type="Truck" speed="0.00" pos="11.03" lane=":561346_3_0" slope="0.00"/>
        <vehicle id="1" x="1616.24" y="1609.65" angle="323.80" type="Truck" speed="5.36" pos="7.56" lane="156298617#2_0" slope="0.00"/>
        <vehicle id="2" x="2663.01" y="2598.18" angle="116.97" type="Sport" speed="4.15" pos="0.10" lane=":162466_5_0" slope="0.00"/>
    </timestep>
    <timestep time="9.00">
        <vehicle id="0" x="1708.57" y="1473.97" angle="164.81" type="Truck" speed="0.00" pos="11.03" lane=":561346_3_0" slope="0.00"/>
        <vehicle id="1" x="1612.27" y="1615.08" angle="323.80" type="Truck" speed="6.72" pos="14.29" lane="156298617#2_0" slope="0.00"/>
        <vehicle id="2" x="2668.04" y="2595.23" angle="117.49" type="Sport" speed="5.84" pos="5.94" lane=":162466_5_0" slope="0.00"/>
        <vehicle id="3" x="3138.53" y="946.01" angle="311.94" type="Car" speed="0.00" pos="1.10" lane="-4607651#2_0" slope="0.00"/>
    </timestep>
    <timestep time="10.00">
        <vehicle id="0" x="1708.57" y="1473.97" angle="164.81" type="Truck" speed="0.00" pos="11.03" lane=":561346_3_0" slope="0.00"/>
        <vehicle id="1" x="1607.94" y="1621.00" angle="323.80" type="Truck" speed="7.34" pos="21.62" lane="156298617#2_0" slope="0.00"/>
        <vehicle id="2" x="2676.20" y="2593.83" angle="92.08" type="Sport" speed="8.35" pos="2.41" lane="292598929_0" slope="0.00"/>
        <vehicle id="3" x="3136.87" y="947.50" angle="311.94" type="Car" speed="2.23" pos="3.33" lane="-4607651#2_0" slope="0.00"/>
    </timestep>
    <timestep time="11.00">
        <vehicle id="0" x="1708.57" y="1473.97" angle="164.81" type="Truck" speed="0.00" pos="11.03" lane=":561346_3_0" slope="0.00"/>
        <vehicle id="1" x="1603.58" y="1626.95" angle="323.80" type="Truck" speed="7.37" pos="29.00" lane="156298617#2_0" slope="0.00"/>
        <vehicle id="2" x="2683.37" y="2593.57" angle="92.08" type="Sport" speed="7.18" pos="9.59" lane="292598929_0" slope="0.00"/>
        <vehicle id="3" x="3134.03" y="950.05" angle="311.94" type="Car" speed="3.82" pos="7.15" lane="-4607651#2_0" slope="0.00"/>
    </timestep>
    <timestep time="12.00">
        <vehicle id="0" x="1708.57" y="1473.97" angle="164.81" type="Truck" speed="0.00" pos="11.03" lane=":561346_3_0" slope="0.00"/>
        <vehicle id="1" x="1599.13" y="1633.03" angle="323.80" type="Truck" speed="7.54" pos="36.53" lane="156298617#2_0" slope="0.00"/>
        <vehicle id="2" x="2691.43" y="2593.50" angle="90.29" type="Sport" speed="8.06" pos="6.88" lane="292598930_0" slope="0.00"/>
        <vehicle id="3" x="3129.56" y="954.06" angle="311.94" type="Car" speed="6.01" pos="13.16" lane="-4607651#2_0" slope="0.00"/>
        <vehicle id="4" x="2551.16" y="1694.59" angle="257.36" type="Car" speed="0.00" pos="1.10" lane="-4644903#7_0" slope="0.00"/>
    </timestep>
    <timestep time="13.00">
        <vehicle id="0" x="1708.57" y="1473.97" angle="164.81" type="Truck" speed="0.00" pos="11.03" lane=":561346_3_0" slope="0.00"/>
        <vehicle id="1" x="1594.64" y="1639.17" angle="323.80" type="Truck" speed="7.60" pos="44.14" lane="156298617#2_0" slope="0.00"/>
        <vehicle id="2" x="2699.61" y="2593.45" angle="90.29" type="Sport" speed="8.18" pos="15.05" lane="292598930_0" slope="0.00"/>
        <vehicle id="3" x="3123.73" y="959.33" angle="312.62" type="Car" speed="7.86" pos="21.02" lane="-4607651#2_0" slope="0.00"/>
        <vehicle id="4" x="2549.63" y="1694.25" angle="257.36" type="Car" speed="1.57" pos="2.67" lane="-4644903#7_0" slope="0.00"/>
    </timestep>
    <timestep time="14.00">
        <vehicle id="0" x="1708.57" y="1473.97" angle="164.81" type="Truck" speed="0.00" pos="11.03" lane=":561346_3_0" slope="0.00"/>
        <vehicle id="1" x="1590.31" y="1645.09" angle="323.80" type="Truck" speed="7.34" pos="51.48" lane="156298617#2_0" slope="0.00"/>
        <vehicle id="2" x="2707.83" y="2593.41" angle="90.29" type="Sport" speed="8.22" pos="23.28" lane="292598930_0" slope="0.00"/>
        <vehicle id="3" x="3117.50" y="965.15" angle="313.08" type="Car" speed="8.52" pos="29.54" lane="-4607651#2_0" slope="0.00"/>
        <vehicle id="4" x="2545.36" y="1693.29" angle="257.36" type="Car" speed="4.38" pos="7.04" lane="-4644903#7_0" slope="0.00"/>
    </timestep>
    <timestep time="15.00">
        <vehicle id="0" x="1708.57" y="1473.97" angle="164.81" type="Truck" speed="0.00" pos="11.03" lane=":561346_3_0" slope="0.00"/>
        <vehicle id="1" x="1586.09" y="1650.85" angle="323.80" type="Truck" speed="7.14" pos="58.62" lane="156298617#2_0" slope="0.00"/>
        <vehicle id="2" x="2715.91" y="2593.37" angle="90.29" type="Sport" speed="8.08" pos="31.36" lane="292598930_0" slope="0.00"/>
        <vehicle id="3" x="3111.20" y="971.04" angle="313.08" type="Car" speed="8.62" pos="38.16" lane="-4607651#2_0" slope="0.00"/>
        <vehicle id="4" x="2538.41" y="1691.73" angle="257.36" type="Car" speed="7.13" pos="14.17" lane="-4644903#7_0" slope="0.00"/>
        <vehicle id="5" x="2022.78" y="2013.24" angle="237.89" type="Sport" speed="0.00" pos="1.10" lane="83115621#0_0" slope="0.00"/>
    </timestep>
    <timestep time="16.00">
        <vehicle id="0" x="1708.57" y="1473.97" angle="164.81" type="Truck" speed="0.00" pos="11.03" lane=":561346_3_0" slope="0.00"/>
        <vehicle id="1" x="1581.81" y="1656.70" angle="323.80" type="Truck" speed="7.25" pos="65.87" lane="156298617#2_0" slope="0.00"/>
        <vehicle id="2" x="2723.33" y="2593.33" angle="90.29" type="Sport" speed="7.41" pos="38.77" lane="292598930_0" slope="0.00"/>
        <vehicle id="3" x="3107.93" y="974.10" angle="313.08" type="Car" speed="4.49" pos="42.65" lane="-4607651#2_0" slope="0.00"/>
        <vehicle id="4" x="2535.62" y="1691.11" angle="257.36" type="Car" speed="2.86" pos="17.03" lane="-4644903#7_0" slope="0.00"/>
        <vehicle id="5" x="2022.60" y="2009.35" angle="237.91" type="Sport" speed="2.14" pos="3.24" lane="83115621#0_1" slope="0.00"/>
    </timestep>
    <timestep time="17.00">
        <vehicle id="0" x="1708.57" y="1473.97" angle="164.81" type="Truck" speed="0.00" pos="11.03" lane=":561346_3_0" slope="0.00"/>
        <vehicle id="1" x="1577.58" y="1662.48" angle="323.80" type="Truck" speed="7.16" pos="73.03" lane="156298617#2_0" slope="0.00"/>
        <vehicle id="2" x="2731.28" y="2593.29" angle="90.29" type="Sport" speed="7.95" pos="46.73" lane="292598930_0" slope="0.00"/>
        <vehicle id="3" x="3105.48" y="973.82" angle="234.07" type="Car" speed="2.77" pos="0.10" lane=":35707903_16_0" slope="0.00"/>
        <vehicle id="4" x="2533.45" y="1689.33" angle="208.70" type="Car" speed="3.02" pos="1.95" lane=":34991695_1_0" slope="0.00"/>
        <vehicle id="5" x="2019.02" y="2007.10" angle="237.91" type="Sport" speed="4.25" pos="7.49" lane="83115621#0_1" slope="0.00"/>
    </timestep>
    <timestep time="18.00">
        <vehicle id="0" x="1708.57" y="1473.97" angle="164.81" type="Truck" speed="0.00" pos="11.03" lane=":561346_3_0" slope="0.00"/>
        <vehicle id="1" x="1573.36" y="1668.24" angle="323.80" type="Truck" speed="7.15" pos="80.17" lane="156298617#2_0" slope="0.00"/>
        <vehicle id="2" x="2739.42" y="2593.25" angle="90.29" type="Sport" speed="8.14" pos="54.87" lane="292598930_0" slope="0.00"/>
        <vehicle id="3" x="3106.33" y="971.20" angle="134.69" type="Car" speed="2.99" pos="0.95" lane="4607651#2_0" slope="0.00"/>
        <vehicle id="4" x="2536.06" y="1687.93" angle="83.51" type="Car" speed="3.53" pos="0.81" lane="4644903#7_0" slope="0.00"/>
        <vehicle id="5" x="2017.19" y="2005.96" angle="237.91" type="Sport" speed="2.16" pos="9.65" lane="83115621#0_1" slope="0.00"/>
        <vehicle id="6" x="3429.01" y="1581.76" angle="283.48" type="Truck" speed="0.00" pos="3.10" lane="96253613#6_0" slope="0.00"/>
    </timestep>
    <timestep time="19.00">
        <vehicle id="0" x="1708.57" y="1473.97" angle="164.81" type="Truck" speed="0.00" pos="11.03" lane=":561346_3_0" slope="0.00"/>
        <vehicle id="1" x="1569.12" y="1674.03" angle="323.80" type="Truck" speed="7.17" pos="87.34" lane="156298617#2_0" slope="0.00"/>
        <vehicle id="2" x="2747.74" y="2593.21" angle="90.29" type="Sport" speed="8.32" pos="63.18" lane="292598930_0" slope="0.00"/>
        <vehicle id="3" x="3110.51" y="967.30" angle="133.06" type="Car" speed="5.72" pos="6.67" lane="4607651#2_0" slope="0.00"/>
        <vehicle id="4" x="2540.98" y="1689.03" angle="77.36" type="Car" speed="5.04" pos="5.85" lane="4644903#7_0" slope="0.00"/>
        <vehicle id="5" x="2016.16" y="2003.39" angle="174.98" type="Sport" speed="3.03" pos="0.04" lane=":306694138_5_0" slope="0.00"/>
        <vehicle id="6" x="3427.64" y="1582.07" angle="283.05" type="Truck" speed="1.38" pos="0.71" lane=":1352757881_0_0" slope="0.00"/>
    </timestep>
    <timestep time="20.00">
        <vehicle id="0" x="1708.57" y="1473.97" angle="164.81" type="Truck" speed="0.00" pos="11.03" lane=":561346_3_0" slope="0.00"/>
        <vehicle id="1" x="1565.09" y="1679.54" angle="323.80" type="Truck" speed="6.83" pos="94.17" lane="156298617#2_0" slope="0.00"/>
        <vehicle id="2" x="2753.19" y="2593.18" angle="90.29" type="Sport" speed="5.45" pos="68.64" lane="292598930_0" slope="0.00"/>
        <vehicle id="3" x="3116.66" y="961.55" angle="133.06" type="Car" speed="8.41" pos="15.08" lane="4607651#2_0" slope="0.00"/>
        <vehicle id="4" x="2548.57" y="1690.73" angle="77.36" type="Car" speed="7.77" pos="13.63" lane="4644903#7_0" slope="0.00"/>
        <vehicle id="5" x="2018.90" y="2003.25" angle="69.19" type="Sport" speed="2.96" pos="0.66" lane="-83115621#0_0" slope="0.00"/>
        <vehicle id="6" x="3425.00" y="1582.40" angle="277.79" type="Truck" speed="2.56" pos="0.18" lane=":35514607_0_0" slope="0.00"/>
    </timestep>
    <timestep time="21.00">
        <vehicle id="0" x="1708.57" y="1473.97" angle="164.81" type="Truck" speed="0.00" pos="11.03" lane=":561346_3_0" slope="0.00"/>
        <vehicle id="1" x="1562.27" y="1684.92" angle="338.96" type="Truck" speed="6.16" pos="4.11" lane=":cluster_562010_581846061_3_0" slope="0.00"/>
        <vehicle id="2" x="2761.16" y="2592.93" angle="92.43" type="Sport" speed="7.98" pos="5.73" lane=":34215969_4_0" slope="0.00"/>
        <vehicle id="3" x="3123.03" y="955.63" angle="131.95" type="Car" speed="8.70" pos="23.78" lane="4607651#2_0" slope="0.00"/>
        <vehicle id="4" x="2555.95" y="1692.36" angle="77.95" type="Car" speed="7.56" pos="3.09" lane=":cluster_1550982852_1685691382_27597005_7_0" slope="0.00"/>
        <vehicle id="5" x="2023.41" y="2006.08" angle="57.88" type="Sport" speed="5.33" pos="5.99" lane="-83115621#0_0" slope="0.00"/>
        <vehicle id="6" x="3420.92" y="1583.02" angle="278.67" type="Truck" speed="3.90" pos="4.09" lane=":35514607_0_0" slope="0.00"/>
        <vehicle id="7" x="2598.35" y="2005.76" angle="119.17" type="Sport" speed="0.00" pos="1.10" lane="156298614#0_0" slope="0.00"/>
    </timestep>
    <timestep time="22.00">
        <vehicle id="0" x="1708.57" y="1473.97" angle="164.81" type="Truck" speed="0.00" pos="11.03" lane=":561346_3_0" slope="0.00"/>
        <vehicle id="1" x="1564.73" y="1690.15" angle="41.34" type="Truck" speed="6.12" pos="0.96" lane="-333805724#3_0" slope="0.00"/>
        <vehicle id="2" x="2771.57" y="2592.29" angle="94.73" type="Sport" speed="10.43" pos="4.84" lane="62333280#0_0" slope="0.00"/>
        <vehicle id="3" x="3128.82" y="950.43" angle="131.95" type="Car" speed="7.78" pos="31.56" lane="4607651#2_0" slope="0.00"/>
        <vehicle id="4" x="2562.91" y="1693.84" angle="77.95" type="Car" speed="7.12" pos="10.21" lane=":cluster_1550982852_1685691382_27597005_7_0" slope="0.00"/>
        <vehicle id="5" x="2029.72" y="2010.03" angle="58.10" type="Sport" speed="7.45" pos="3.28" lane=":cluster_1103844831_306691362_390535663_390535664_390535673_9_0" slope="0.00"/>
        <vehicle id="6" x="3418.31" y="1583.42" angle="278.67" type="Truck" speed="2.49" pos="6.58" lane=":35514607_0_0" slope="0.00"/>
        <vehicle id="7" x="2600.19" y="2004.73" angle="119.17" type="Sport" speed="2.08" pos="3.18" lane="156298614#0_0" slope="0.00"/>
    </timestep>
    <timestep time="23.00">
        <vehicle id="0" x="1708.57" y="1473.97" angle="164.81" type="Truck" speed="0.00" pos="11.03" lane=":561346_3_0" slope="0.00"/>
        <vehicle id="1" x="1570.06" y="1694.95" angle="47.98" type="Truck" speed="7.17" pos="8.13" lane="-333805724#3_0" slope="0.00"/>
        <vehicle id="2" x="2784.33" y="2591.24" angle="94.73" type="Sport" speed="12.80" pos="17.64" lane="62333280#0_0" slope="0.00"/>
        <vehicle id="3" x="3134.55" y="945.28" angle="131.95" type="Car" speed="7.71" pos="39.27" lane="4607651#2_0" slope="0.00"/>
        <vehicle id="4" x="2570.39" y="1695.44" angle="77.95" type="Car" speed="7.64" pos="17.85" lane=":cluster_1550982852_1685691382_27597005_7_0" slope="0.00"/>
        <vehicle id="5" x="2037.42" y="2014.82" angle="58.34" type="Sport" speed="9.06" pos="0.36" lane="-51664682#3_0" slope="0.00"/>
        <vehicle id="6" x="3418.07" y="1583.46" angle="278.67" type="Truck" speed="0.23" pos="6.81" lane=":35514607_0_0" slope="0.00"/>
        <vehicle id="7" x="2604.65" y="2002.24" angle="119.17" type="Sport" speed="5.04" pos="8.22" lane="156298614#0_0" slope="0.00"/>
    </timestep>
    <timestep time="24.00">
        <vehicle id="0" x="1708.57" y="1473.97" angle="164.81" type="Truck" speed="0.00" pos="11.03" lane=":561346_3_0" slope="0.00"/>
        <vehicle id="1" x="1576.27" y="1700.55" angle="47.98" type="Truck" speed="8.36" pos="16.49" lane="-333805724#3_0" slope="0.00"/>
        <vehicle id="2" x="2797.70" y="2590.13" angle="94.73" type="Sport" speed="13.42" pos="31.06" lane="62333280#0_0" slope="0.00"/>
        <vehicle id="3" x="3140.38" y="939.58" angle="136.35" type="Car" speed="8.16" pos="4.46" lane="8511656#0_0" slope="0.00"/>
        <vehicle id="4" x="2577.36" y="1696.92" angle="77.93" type="Car" speed="7.13" pos="0.02" lane="4644903#10_0" slope="0.00"/>
        <vehicle id="5" x="2046.85" y="2020.54" angle="58.75" type="Sport" speed="11.03" pos="11.39" lane="-51664682#3_0" slope="0.00"/>
        <vehicle id="6" x="3418.04" y="1583.46" angle="278.67" type="Truck" speed="0.03" pos="6.84" lane=":35514607_0_0" slope="0.00"/>
        <vehicle id="7" x="2611.08" y="1999.36" angle="112.16" type="Sport" speed="6.98" pos="1.56" lane=":cluster_1678932206_1678932209_1678932214_1685691446_2673080399_3_0" slope="0.00"/>
        <vehicle id="8" x="3391.43" y="2580.48" angle="161.02" type="Car" speed="0.00" pos="1.10" lane="5076402#0_0" slope="0.00"/>
    </timestep>
    <timestep time="25.00">
        <vehicle id="0" x="1708.57" y="1473.97" angle="164.81" type="Truck" speed="0.00" pos="11.03" lane=":561346_3_0" slope="0.00"/>
        <vehicle id="1" x="1583.18" y="1706.77" angle="47.98" type="Truck" speed="9.30" pos="25.80" lane="-333805724#3_0" slope="0.00"/>
        <vehicle id="2" x="2810.52" y="2589.07" angle="94.73" type="Sport" speed="12.86" pos="43.92" lane="62333280#0_0" slope="0.00"/>
        <vehicle id="3" x="3145.87" y="933.83" angle="136.35" type="Car" speed="7.95" pos="12.41" lane="8511656#0_0" slope="0.00"/>
        <vehicle id="4" x="2585.54" y="1698.82" angle="76.93" type="Car" speed="8.40" pos="8.42" lane="4644903#10_0" slope="0.00"/>
        <vehicle id="5" x="2056.36" y="2026.31" angle="58.75" type="Sport" speed="11.12" pos="22.51" lane="-51664682#3_0" slope="0.00"/>
        <vehicle id="6" x="3418.03" y="1583.46" angle="278.67" type="Truck" speed="0.01" pos="6.85" lane=":35514607_0_0" slope="0.00"/>
        <vehicle id="7" x="2619.44" y="1996.04" angle="109.85" type="Sport" speed="8.93" pos="1.91" lane="156298614#2_0" slope="0.00"/>
        <vehicle id="8" x="3391.97" y="2578.89" angle="161.02" type="Car" speed="1.68" pos="2.78" lane="5076402#0_0" slope="0.00"/>
    </timestep>
    <timestep time="26.00">
        <vehicle id="0" x="1708.57" y="1473.97" angle="164.81" type="Truck" speed="0.00" pos="11.03" lane=":561346_3_0" slope="0.00"/>
        <vehicle id="1" x="1590.82" y="1713.77" angle="46.88" type="Truck" speed="10.37" pos="4.29" lane=":cluster_581844805_845706798_2_0" slope="0.00"/>
        <vehicle id="2" x="2824.45" y="2588.00" angle="94.27" type="Sport" speed="13.97" pos="57.89" lane="62333280#0_0" slope="0.00"/>
        <vehicle id="3" x="3151.40" y="928.03" angle="136.35" type="Car" speed="8.01" pos="20.42" lane="8511656#0_0" slope="0.00"/>
        <vehicle id="4" x="2592.47" y="1700.43" angle="76.93" type="Car" speed="7.12" pos="15.53" lane="4644903#10_0" slope="0.00"/>
        <vehicle id="5" x="2065.66" y="2032.09" angle="57.81" type="Sport" speed="10.96" pos="33.47" lane="-51664682#3_0" slope="0.00"/>
        <vehicle id="6" x="3418.03" y="1583.46" angle="278.67" type="Truck" speed="0.00" pos="6.85" lane=":35514607_0_0" slope="0.00"/>
        <vehicle id="7" x="2630.34" y="1991.95" angle="110.64" type="Sport" speed="11.71" pos="10.68" lane=":1842342965_1_0" slope="0.00"/>
        <vehicle id="8" x="3392.70" y="2577.62" angle="144.61" type="Car" speed="1.51" pos="4.28" lane="5076402#0_0" slope="0.00"/>
    </timestep>
    <timestep time="27.00">
        <vehicle id="0" x="1708.57" y="1473.97" angle="164.81" type="Truck" speed="0.00" pos="11.03" lane=":561346_3_0" slope="0.00"/>
        <vehicle id="1" x="1598.97" y="1721.59" angle="46.14" type="Truck" speed="11.29" pos="2.07" lane=":2647751197_2_0" slope="0.00"/>
        <vehicle id="2" x="2837.45" y="2587.03" angle="94.27" type="Sport" speed="13.04" pos="70.93" lane="62333280#0_0" slope="0.00"/>
        <vehicle id="3" x="3157.01" y="922.15" angle="136.35" type="Car" speed="8.13" pos="28.55" lane="8511656#0_0" slope="0.00"/>
        <vehicle id="4" x="2600.42" y="1702.28" angle="76.95" type="Car" speed="8.17" pos="23.70" lane="4644903#10_0" slope="0.00"/>
        <vehicle id="5" x="2074.89" y="2037.89" angle="57.81" type="Sport" speed="10.90" pos="44.37" lane="-51664682#3_0" slope="0.00"/>
        <vehicle id="6" x="3418.03" y="1583.46" angle="278.67" type="Truck" speed="0.00" pos="6.85" lane=":35514607_0_0" slope="0.00"/>
        <vehicle id="7" x="2641.74" y="1987.22" angle="112.95" type="Sport" speed="12.08" pos="9.98" lane="284213281_0" slope="0.00"/>
        <vehicle id="8" x="3394.17" y="2576.10" angle="136.05" type="Car" speed="2.11" pos="6.40" lane="5076402#0_0" slope="0.00"/>
        <vehicle id="9" x="1863.34" y="1251.08" angle="151.21" type="Truck" speed="0.00" pos="3.10" lane="238663242#5_0" slope="0.00"/>
    </timestep>
    <timestep time="28.00">
        <vehicle id="0" x="1708.57" y="1473.97" angle="164.81" type="Truck" speed="0.00" pos="11.03" lane=":561346_3_0" slope="0.00"/>
        <vehicle id="1" x="1608.12" y="1730.37" angle="46.17" type="Truck" speed="12.68" pos="9.75" lane="-333805724#1_0" slope="0.00"/>
        <vehicle id="2" x="2850.17" y="2586.08" angle="94.27" type="Sport" speed="12.75" pos="83.68" lane="62333280#0_0" slope="0.00"/>
        <vehicle id="3" x="3162.39" y="916.51" angle="136.35" type="Car" speed="7.79" pos="36.34" lane="8511656#0_0" slope="0.00"/>
        <vehicle id="4" x="2607.40" y="1703.90" angle="76.95" type="Car" speed="7.17" pos="30.86" lane="4644903#10_0" slope="0.00"/>
        <vehicle id="5" x="2083.84" y="2043.53" angle="57.81" type="Sport" speed="10.58" pos="54.95" lane="-51664682#3_0" slope="0.00"/>
        <vehicle id="6" x="3418.03" y="1583.46" angle="278.67" type="Truck" speed="0.00" pos="6.85" lane=":35514607_0_0" slope="0.00"/>
        <vehicle id="7" x="2652.55" y="1982.88" angle="108.69" type="Sport" speed="11.42" pos="2.99" lane=":1678932235_3_0" slope="0.00"/>
        <vehicle id="8" x="3395.48" y="2574.74" angle="136.05" type="Car" speed="1.89" pos="8.29" lane="5076402#0_0" slope="0.00"/>
        <vehicle id="9" x="1863.69" y="1250.46" angle="151.21" type="Truck" speed="0.71" pos="3.81" lane="238663242#5_0" slope="0.00"/>
    </timestep>
    <timestep time="29.00">
        <vehicle id="0" x="1708.57" y="1473.97" angle="164.81" type="Truck" speed="0.00" pos="11.03" lane=":561346_3_0" slope="0.00"/>
        <vehicle id="1" x="1617.19" y="1739.08" angle="46.17" type="Truck" speed="12.57" pos="22.32" lane="-333805724#1_0" slope="0.00"/>
        <vehicle id="2" x="2862.81" y="2585.09" angle="94.61" type="Sport" speed="12.68" pos="96.36" lane="62333280#0_0" slope="0.00"/>
        <vehicle id="3" x="3168.25" y="910.36" angle="136.35" type="Car" speed="8.50" pos="44.84" lane="8511656#0_0" slope="0.00"/>
        <vehicle id="4" x="2614.60" y="1705.56" angle="76.95" type="Car" speed="7.39" pos="38.25" lane="4644903#10_0" slope="0.00"/>
        <vehicle id="5" x="2093.41" y="2049.52" angle="58.10" type="Sport" speed="11.29" pos="5.75" lane=":306693918_8_0" slope="0.00"/>
        <vehicle id="6" x="3418.03" y="1583.46" angle="278.67" type="Truck" speed="0.00" pos="6.85" lane=":35514607_0_0" slope="0.00"/>
        <vehicle id="7" x="2664.54" y="1980.20" angle="99.30" type="Sport" speed="12.31" pos="15.29" lane=":1678932235_3_0" slope="0.00"/>
        <vehicle id="8" x="3396.87" y="2573.30" angle="136.05" type="Car" speed="1.99" pos="10.28" lane="5076402#0_0" slope="0.00"/>
        <vehicle id="9" x="1864.70" y="1248.88" angle="148.74" type="Truck" speed="1.88" pos="5.69" lane="238663242#5_0" slope="0.00"/>
    </timestep>
    <timestep time="30.00">
        <vehicle id="0" x="1708.57" y="1473.97" angle="164.81" type="Truck" speed="0.00" pos="11.03" lane=":561346_3_0" slope="0.00"/>
        <vehicle id="1" x="1626.42" y="1747.88" angle="46.61" type="Truck" speed="12.76" pos="3.45" lane="-333805724#0_0" slope="0.00"/>
        <vehicle id="10" x="1721.40" y="1485.55" angle="55.74" type="Sport" speed="0.00" pos="0.20" lane="388737756#2_0" slope="0.00"/>
        <vehicle id="2" x="2876.07" y="2584.02" angle="94.61" type="Sport" speed="13.30" pos="109.66" lane="62333280#0_0" slope="0.00"/>
        <vehicle id="3" x="3173.00" y="904.37" angle="142.79" type="Car" speed="7.65" pos="52.50" lane="8511656#0_0" slope="0.00"/>
        <vehicle id="4" x="2622.34" y="1707.45" angle="75.86" type="Car" speed="7.96" pos="4.48" lane=":1842614199_2_0" slope="0.00"/>
        <vehicle id="5" x="2101.96" y="2054.81" angle="58.30" type="Sport" speed="10.05" pos="6.38" lane="-51664682#2_0" slope="0.00"/>
        <vehicle id="6" x="3418.03" y="1583.46" angle="278.67" type="Truck" speed="0.00" pos="6.85" lane=":35514607_0_0" slope="0.00"/>
        <vehicle id="7" x="2674.70" y="1975.87" angle="116.87" type="Sport" speed="11.08" pos="7.22" lane="88197989_0" slope="0.00"/>
        <vehicle id="8" x="3398.57" y="2571.53" angle="136.05" type="Car" speed="2.46" pos="12.74" lane="5076402#0_0" slope="0.00"/>
        <vehicle id="9" x="1866.29" y="1246.73" angle="143.62" type="Truck" speed="2.68" pos="8.37" lane="238663242#5_0" slope="0.00"/>
    </timestep>
    <timestep time="31.00">
        <vehicle id="0" x="1708.57" y="1473.97" angle="164.81" type="Truck" speed="0.00" pos="11.03" lane=":561346_3_0" slope="0.00"/>
        <vehicle id="1" x="1635.75" y="1756.65" angle="47.17" type="Truck" speed="12.81" pos="1.41" lane=":cluster_2407368336_390535699_742724130_5_0" slope="0.00"/>
        <vehicle id="10" x="1721.34" y="1489.44" angle="54.38" type="Sport" speed="2.27" pos="2.27" lane=":561347_1_1" slope="0.00"/>
        <vehicle id="2" x="2889.37" y="2582.95" angle="94.26" type="Sport" speed="13.34" pos="1.56" lane=":34216006_4_0" slope="0.00"/>
        <vehicle id="3" x="3177.69" y="898.19" angle="142.79" type="Car" speed="7.75" pos="60.25" lane="8511656#0_0" slope="0.00"/>
        <vehicle id="4" x="2630.37" y="1709.74" angle="73.84" type="Car" speed="8.35" pos="7.52" lane="4644903#11_0" slope="0.00"/>
        <vehicle id="5" x="2110.86" y="2060.31" angle="58.30" type="Sport" speed="10.46" pos="16.84" lane="-51664682#2_0" slope="0.00"/>
        <vehicle id="6" x="3418.03" y="1583.46" angle="278.67" type="Truck" speed="0.00" pos="6.85" lane=":35514607_0_0" slope="0.00"/>
        <vehicle id="7" x="2684.97" y="1970.41" angle="117.99" type="Sport" speed="11.64" pos="18.86" lane="88197989_0" slope="0.00"/>
        <vehicle id="8" x="3400.08" y="2569.97" angle="136.05" type="Car" speed="2.17" pos="14.91" lane="5076402#0_0" slope="0.00"/>
        <vehicle id="9" x="1868.62" y="1243.56" angle="143.62" type="Truck" speed="3.93" pos="12.30" lane="238663242#5_0" slope="0.00"/>
    </timestep>
    <timestep time="32.00">
        <vehicle id="0" x="1708.57" y="1473.97" angle="164.81" type="Truck" speed="0.00" pos="11.03" lane=":561346_3_0" slope="0.00"/>
        <vehicle id="1" x="1645.35" y="1765.22" angle="49.16" type="Truck" speed="12.87" pos="4.26" lane="-266449025#1_0" slope="0.00"/>
        <vehicle id="10" x="1725.17" y="1492.08" angle="58.63" type="Sport" speed="4.60" pos="0.97" lane=":569670930_0_1" slope="0.00"/>
        <vehicle id="2" x="2903.22" y="2581.95" angle="93.95" type="Sport" speed="13.89" pos="4.27" lane="62333280#1_0" slope="0.00"/>
        <vehicle id="3" x="3182.88" y="891.11" angle="144.92" type="Car" speed="8.78" pos="69.03" lane="8511656#0_0" slope="0.00"/>
        <vehicle id="4" x="2638.28" y="1712.05" angle="73.63" type="Car" speed="8.24" pos="15.76" lane="4644903#11_0" slope="0.00"/>
        <vehicle id="5" x="2120.53" y="2066.29" angle="58.30" type="Sport" speed="11.37" pos="28.21" lane="-51664682#2_0" slope="0.00"/>
        <vehicle id="6" x="3418.03" y="1583.46" angle="278.67" type="Truck" speed="0.00" pos="6.85" lane=":35514607_0_0" slope="0.00"/>
        <vehicle id="7" x="2694.79" y="1965.19" angle="117.99" type="Sport" speed="11.12" pos="29.98" lane="88197989_0" slope="0.00"/>
        <vehicle id="8" x="3401.37" y="2568.63" angle="136.05" type="Car" speed="1.85" pos="16.76" lane="5076402#0_0" slope="0.00"/>
        <vehicle id="9" x="1871.73" y="1239.33" angle="143.62" type="Truck" speed="5.24" pos="17.55" lane="238663242#5_0" slope="0.00"/>
    </timestep>
    <timestep time="33.00">
        <vehicle id="0" x="1708.57" y="1473.97" angle="164.81" type="Truck" speed="0.00" pos="11.03" lane=":561346_3_0" slope="0.00"/>
        <vehicle id="1" x="1654.73" y="1773.33" angle="49.16" type="Truck" speed="12.39" pos="16.65" lane="-266449025#1_0" slope="0.00"/>
        <vehicle id="10" x="1730.19" y="1498.11" angle="347.33" type="Sport" speed="7.31" pos="0.21" lane="388737755_2" slope="0.00"/>
        <vehicle id="11" x="1372.86" y="1039.62" angle="213.12" type="Truck" speed="0.00" pos="3.10" lane="29346809_0" slope="0.00"/>