<?xml version="1.0" encoding="UTF-8"?>

<!-- generated on 08/19/19 14:05:46 by Eclipse SUMO Version 1.2.0
<configuration xmlns:xsi="http://www.w3.org/2001/XMLSchema-instance" xsi:noNamespaceSchemaLocation="http://sumo.dlr.de/xsd/sumoConfiguration.xsd">

    <input>
        <net-file value="mapNetconvert.net.xml"/>
        <route-files value="models/random/routes.rou.xml"/>
    </input>

    <output>
        <fcd-output value="C:\Users\darkm\Desktop\C4R\models\random\mapNetconvert.fcd"/>
    </output>

</configuration>
-->

<fcd-export xmlns:xsi="http://www.w3.org/2001/XMLSchema-instance" xsi:noNamespaceSchemaLocation="http://sumo.dlr.de/xsd/fcd_file.xsd">
    <timestep time="0.00">
        <vehicle id="0" x="321.91" y="788.68" angle="131.33" type="Truck" speed="0.00" pos="3.10" lane="-228371100#7_0" slope="0.00"/>
    </timestep>
    <timestep time="1.00">
        <vehicle id="0" x="322.68" y="788.00" angle="131.33" type="Truck" speed="1.03" pos="4.13" lane="-228371100#7_0" slope="0.00"/>
    </timestep>
    <timestep time="2.00">
        <vehicle id="0" x="324.16" y="786.70" angle="131.33" type="Truck" speed="1.96" pos="6.09" lane="-228371100#7_0" slope="0.00"/>
    </timestep>
    <timestep time="3.00">
        <vehicle id="0" x="326.44" y="784.70" angle="131.33" type="Truck" speed="3.04" pos="9.13" lane="-228371100#7_0" slope="0.00"/>
        <vehicle id="1" x="159.64" y="471.52" angle="197.82" type="Truck" speed="0.00" pos="3.10" lane="47360654#1_0" slope="0.00"/>
    </timestep>
    <timestep time="4.00">
        <vehicle id="0" x="329.71" y="781.82" angle="131.33" type="Truck" speed="4.35" pos="13.49" lane="-228371100#7_0" slope="0.00"/>
        <vehicle id="1" x="159.28" y="470.40" angle="197.82" type="Truck" speed="1.17" pos="4.27" lane="47360654#1_0" slope="0.00"/>
    </timestep>
    <timestep time="5.00">
        <vehicle id="0" x="333.87" y="778.16" angle="131.33" type="Truck" speed="5.54" pos="19.02" lane="-228371100#7_0" slope="0.00"/>
        <vehicle id="1" x="158.52" y="468.03" angle="197.82" type="Truck" speed="2.49" pos="6.76" lane="47360654#1_0" slope="0.00"/>
    </timestep>
    <timestep time="6.00">
        <vehicle id="0" x="338.79" y="773.84" angle="131.34" type="Truck" speed="6.55" pos="25.58" lane="-228371100#7_0" slope="0.00"/>
        <vehicle id="1" x="157.40" y="464.54" angle="197.82" type="Truck" speed="3.66" pos="10.42" lane="47360654#1_0" slope="0.00"/>
        <vehicle id="2" x="224.23" y="611.16" angle="108.26" type="Sport" speed="0.00" pos="1.10" lane="228373950#0_0" slope="0.00"/>
    </timestep>
    <timestep time="7.00">
        <vehicle id="0" x="344.62" y="768.71" angle="131.31" type="Truck" speed="7.77" pos="1.59" lane=":cluster_2370547828_603046474_4_0" slope="0.00"/>
        <vehicle id="1" x="156.05" y="460.34" angle="197.82" type="Truck" speed="4.41" pos="14.83" lane="47360654#1_0" slope="0.00"/>
        <vehicle id="2" x="226.15" y="610.52" angle="108.26" type="Sport" speed="2.02" pos="3.12" lane="228373950#0_0" slope="0.00"/>
    </timestep>
    <timestep time="8.00">
        <vehicle id="0" x="351.12" y="762.96" angle="131.86" type="Truck" speed="8.70" pos="2.10" lane="-228371100#6_0" slope="0.00"/>
        <vehicle id="1" x="154.47" y="455.43" angle="197.82" type="Truck" speed="5.16" pos="20.00" lane="47360654#1_0" slope="0.00"/>
        <vehicle id="2" x="230.35" y="610.12" angle="95.47" type="Sport" speed="4.22" pos="7.34" lane="228373950#0_0" slope="0.00"/>
    </timestep>
    <timestep time="9.00">
        <vehicle id="0" x="358.32" y="756.45" angle="132.12" type="Truck" speed="9.71" pos="11.81" lane="-228371100#6_0" slope="0.00"/>
        <vehicle id="1" x="152.55" y="449.47" angle="197.82" type="Truck" speed="6.26" pos="26.26" lane="47360654#1_0" slope="0.00"/>
        <vehicle id="2" x="236.95" y="609.49" angle="95.47" type="Sport" speed="6.63" pos="13.97" lane="228373950#0_0" slope="0.00"/>
        <vehicle id="3" x="426.63" y="642.54" angle="199.86" type="Car" speed="0.00" pos="1.10" lane="-47370578#4_0" slope="0.00"/>
    </timestep>
    <timestep time="10.00">
        <vehicle id="0" x="366.30" y="749.24" angle="132.12" type="Truck" speed="10.75" pos="22.56" lane="-228371100#6_0" slope="0.00"/>
        <vehicle id="1" x="150.27" y="442.38" angle="197.87" type="Truck" speed="7.44" pos="33.70" lane="47360654#1_0" slope="0.00"/>
        <vehicle id="2" x="245.37" y="608.68" angle="95.47" type="Sport" speed="8.46" pos="22.43" lane="228373950#0_0" slope="0.00"/>
        <vehicle id="3" x="425.99" y="640.77" angle="199.86" type="Car" speed="1.88" pos="2.98" lane="-47370578#4_0" slope="0.00"/>
    </timestep>
    <timestep time="11.00">
        <vehicle id="0" x="375.24" y="741.15" angle="132.12" type="Truck" speed="12.06" pos="34.62" lane="-228371100#6_0" slope="0.00"/>
        <vehicle id="1" x="149.53" y="436.86" angle="183.18" type="Truck" speed="5.64" pos="4.66" lane=":368243961_1_0" slope="0.00"/>
        <vehicle id="2" x="255.52" y="610.15" angle="79.49" type="Sport" speed="10.30" pos="32.72" lane="228373950#0_0" slope="0.00"/>
        <vehicle id="3" x="426.04" y="637.15" angle="166.13" type="Car" speed="3.77" pos="6.75" lane="-47370578#4_0" slope="0.00"/>
    </timestep>
    <timestep time="12.00">
        <vehicle id="0" x="384.90" y="732.41" angle="132.12" type="Truck" speed="13.02" pos="47.65" lane="-228371100#6_0" slope="0.00"/>
        <vehicle id="1" x="152.86" y="431.69" angle="134.22" type="Truck" speed="6.41" pos="5.13" lane=":368243961_9_0" slope="0.00"/>
        <vehicle id="2" x="267.83" y="613.06" angle="68.09" type="Sport" speed="12.70" pos="45.43" lane="228373950#0_0" slope="0.00"/>
        <vehicle id="3" x="427.43" y="631.55" angle="166.13" type="Car" speed="5.77" pos="12.52" lane="-47370578#4_0" slope="0.00"/>
        <vehicle id="4" x="508.66" y="622.20" angle="138.47" type="Car" speed="0.00" pos="1.10" lane="-228371100#1_0" slope="0.00"/>
    </timestep>
    <timestep time="13.00">
        <vehicle id="0" x="392.93" y="725.16" angle="132.12" type="Truck" speed="10.82" pos="58.46" lane="-228371100#6_0" slope="0.00"/>
        <vehicle id="1" x="159.81" y="428.68" angle="110.13" type="Truck" speed="7.59" pos="4.36" lane="47360627_0" slope="0.00"/>
        <vehicle id="2" x="279.94" y="617.93" angle="68.09" type="Sport" speed="13.04" pos="58.47" lane="228373950#0_0" slope="0.00"/>
        <vehicle id="3" x="429.30" y="623.97" angle="166.13" type="Car" speed="7.81" pos="20.33" lane="-47370578#4_0" slope="0.00"/>
        <vehicle id="4" x="509.82" y="620.90" angle="138.47" type="Car" speed="1.75" pos="2.85" lane="-228371100#1_0" slope="0.00"/>
    </timestep>
    <timestep time="14.00">
        <vehicle id="0" x="395.81" y="720.35" angle="161.07" type="Truck" speed="5.86" pos="4.72" lane=":603046488_8_0" slope="0.00"/>
        <vehicle id="1" x="167.59" y="425.82" angle="110.13" type="Truck" speed="8.29" pos="12.65" lane="47360627_0" slope="0.00"/>
        <vehicle id="2" x="292.41" y="622.95" angle="68.09" type="Sport" speed="13.44" pos="71.91" lane="228373950#0_0" slope="0.00"/>
        <vehicle id="3" x="431.56" y="614.14" angle="167.80" type="Car" speed="10.09" pos="30.42" lane="-47370578#4_0" slope="0.00"/>
        <vehicle id="4" x="512.45" y="617.58" angle="143.76" type="Car" speed="4.26" pos="7.11" lane="-228371100#1_0" slope="0.00"/>
    </timestep>
    <timestep time="15.00">
        <vehicle id="0" x="391.53" y="716.51" angle="238.10" type="Truck" speed="5.93" pos="1.54" lane="144152790#0_0" slope="0.00"/>
        <vehicle id="1" x="176.22" y="422.66" angle="110.13" type="Truck" speed="9.18" pos="21.84" lane="47360627_0" slope="0.00"/>
        <vehicle id="2" x="304.96" y="628.00" angle="68.09" type="Sport" speed="13.53" pos="85.44" lane="228373950#0_0" slope="0.00"/>
        <vehicle id="3" x="434.18" y="602.03" angle="167.80" type="Car" speed="12.39" pos="42.81" lane="-47370578#4_0" slope="0.00"/>
        <vehicle id="4" x="516.61" y="611.90" angle="143.76" type="Car" speed="7.09" pos="14.20" lane="-228371100#1_0" slope="0.00"/>
        <vehicle id="5" x="570.61" y="415.39" angle="341.15" type="Sport" speed="0.00" pos="0.20" lane="47368036_0" slope="0.00"/>
    </timestep>
    <timestep time="16.00">
        <vehicle id="0" x="385.63" y="713.38" angle="242.08" type="Truck" speed="6.68" pos="8.22" lane="144152790#0_0" slope="0.00"/>
        <vehicle id="1" x="185.84" y="419.14" angle="110.13" type="Truck" speed="10.24" pos="32.08" lane="47360627_0" slope="0.00"/>
        <vehicle id="2" x="317.30" y="632.96" angle="68.07" type="Sport" speed="13.30" pos="4.59" lane=":2370547821_0_0" slope="0.00"/>
        <vehicle id="3" x="435.67" y="588.14" angle="186.06" type="Car" speed="14.05" pos="11.33" lane=":603095577_6_0" slope="0.00"/>
        <vehicle id="4" x="522.06" y="604.35" angle="144.48" type="Car" speed="9.37" pos="23.57" lane="-228371100#1_0" slope="0.00"/>
        <vehicle id="5" x="569.27" y="418.07" angle="333.51" type="Sport" speed="3.00" pos="3.00" lane=":cluster_603087581_603642959_6_0" slope="0.00"/>
    </timestep>
    <timestep time="17.00">
        <vehicle id="0" x="378.85" y="710.00" angle="245.62" type="Truck" speed="7.58" pos="4.82" lane=":603046486_0_0" slope="0.00"/>
        <vehicle id="1" x="196.42" y="415.26" angle="110.13" type="Truck" speed="11.27" pos="43.35" lane="47360627_0" slope="0.00"/>
        <vehicle id="2" x="329.02" y="637.67" angle="68.10" type="Sport" speed="12.62" pos="7.81" lane="228373950#1_0" slope="0.00"/>
        <vehicle id="3" x="432.94" y="574.56" angle="192.84" type="Car" speed="13.86" pos="12.28" lane="-47370578#3_0" slope="0.00"/>
        <vehicle id="4" x="528.20" y="594.88" angle="148.40" type="Car" speed="11.36" pos="34.93" lane="-228371100#1_0" slope="0.00"/>
        <vehicle id="5" x="564.58" y="420.71" angle="277.78" type="Sport" speed="5.67" pos="8.67" lane=":cluster_603087581_603642959_6_0" slope="0.00"/>
    </timestep>
    <timestep time="18.00">
        <vehicle id="0" x="370.73" y="706.69" angle="247.80" type="Truck" speed="8.77" pos="7.55" lane="144152790#1_0" slope="0.00"/>
        <vehicle id="1" x="208.25" y="410.92" angle="110.13" type="Truck" speed="12.60" pos="55.95" lane="47360627_0" slope="0.00"/>
        <vehicle id="2" x="341.76" y="642.80" angle="68.10" type="Sport" speed="13.73" pos="21.54" lane="228373950#1_0" slope="0.00"/>
        <vehicle id="3" x="427.91" y="561.91" angle="212.84" type="Car" speed="13.82" pos="26.10" lane="-47370578#3_0" slope="0.00"/>
        <vehicle id="4" x="534.98" y="583.90" angle="148.12" type="Car" speed="12.97" pos="47.90" lane="-228371100#1_0" slope="0.00"/>
        <vehicle id="5" x="559.88" y="419.51" angle="253.08" type="Sport" speed="4.90" pos="0.62" lane=":603087580_0_0" slope="0.00"/>
    </timestep>
    <timestep time="19.00">
        <vehicle id="0" x="361.62" y="702.97" angle="247.80" type="Truck" speed="9.84" pos="17.39" lane="144152790#1_0" slope="0.00"/>
        <vehicle id="1" x="220.30" y="406.50" angle="110.13" type="Truck" speed="12.83" pos="68.79" lane="47360627_0" slope="0.00"/>
        <vehicle id="2" x="353.54" y="647.53" angle="68.10" type="Sport" speed="12.70" pos="34.24" lane="228373950#1_0" slope="0.00"/>
        <vehicle id="3" x="420.37" y="550.23" angle="212.84" type="Car" speed="13.91" pos="40.01" lane="-47370578#3_0" slope="0.00"/>
        <vehicle id="4" x="542.12" y="572.41" angle="148.14" type="Car" speed="13.61" pos="61.52" lane="-228371100#1_0" slope="0.00"/>
        <vehicle id="5" x="556.16" y="420.30" angle="312.05" type="Sport" speed="4.08" pos="4.71" lane=":603087580_0_0" slope="0.00"/>
    </timestep>
    <timestep time="20.00">
        <vehicle id="0" x="351.58" y="698.88" angle="247.80" type="Truck" speed="10.84" pos="28.23" lane="144152790#1_0" slope="0.00"/>
        <vehicle id="1" x="232.38" y="402.08" angle="110.13" type="Truck" speed="12.86" pos="81.65" lane="47360627_0" slope="0.00"/>
        <vehicle id="2" x="366.41" y="652.70" angle="68.10" type="Sport" speed="13.86" pos="48.11" lane="228373950#1_0" slope="0.00"/>
        <vehicle id="3" x="421.23" y="536.61" angle="138.42" type="Car" speed="14.82" pos="54.84" lane="-47370578#3_0" slope="0.00"/>
        <vehicle id="4" x="549.41" y="560.69" angle="148.15" type="Car" speed="13.89" pos="1.23" lane=":cluster_1577359115_2370780663_7_0" slope="0.00"/>
        <vehicle id="5" x="553.83" y="424.22" angle="337.21" type="Sport" speed="4.62" pos="1.30" lane="-47370606#4_0" slope="0.00"/>
    </timestep>
    <timestep time="21.00">
        <vehicle id="0" x="340.28" y="694.26" angle="247.80" type="Truck" speed="12.21" pos="40.44" lane="144152790#1_0" slope="0.00"/>
        <vehicle id="1" x="241.10" y="398.88" angle="110.13" type="Truck" speed="9.29" pos="90.94" lane="47360627_0" slope="0.00"/>
        <vehicle id="2" x="378.63" y="657.62" angle="68.08" type="Sport" speed="13.18" pos="0.16" lane="228373950#2_0" slope="0.00"/>
        <vehicle id="3" x="432.23" y="527.86" angle="110.26" type="Car" speed="14.45" pos="69.29" lane="-47370578#3_0" slope="0.00"/>
        <vehicle id="4" x="556.46" y="549.35" angle="148.15" type="Car" speed="13.38" pos="14.61" lane=":cluster_1577359115_2370780663_7_0" slope="0.00"/>
        <vehicle id="5" x="550.98" y="431.01" angle="337.21" type="Sport" speed="7.36" pos="8.66" lane="-47370606#4_0" slope="0.00"/>
        <vehicle id="6" x="553.13" y="425.89" angle="337.21" type="Truck" speed="0.00" pos="3.10" lane="-47370606#4_0" slope="0.00"/>
        <vehicle id="7" x="274.01" y="639.98" angle="247.27" type="Sport" speed="0.00" pos="1.10" lane="47360672_0" slope="0.00"/>
    </timestep>
    <timestep time="22.00">
        <vehicle id="0" x="329.05" y="689.65" angle="247.23" type="Truck" speed="12.14" pos="2.79" lane=":603046484_0_0" slope="0.00"/>
        <vehicle id="1" x="246.76" y="395.85" angle="128.08" type="Truck" speed="6.60" pos="2.19" lane=":603045562_2_0" slope="0.00"/>
        <vehicle id="2" x="391.04" y="662.61" angle="68.10" type="Sport" speed="13.38" pos="13.53" lane="228373950#2_0" slope="0.00"/>
        <vehicle id="3" x="445.04" y="523.14" angle="110.26" type="Car" speed="13.65" pos="82.94" lane="-47370578#3_0" slope="0.00"/>
        <vehicle id="4" x="563.71" y="537.67" angle="148.14" type="Car" speed="13.74" pos="13.43" lane="-228371100#0_0" slope="0.00"/>
        <vehicle id="5" x="547.40" y="439.51" angle="337.21" type="Sport" speed="9.22" pos="17.88" lane="-47370606#4_0" slope="0.00"/>
        <vehicle id="6" x="552.85" y="426.56" angle="337.21" type="Truck" speed="0.73" pos="3.83" lane="-47370606#4_0" slope="0.00"/>
        <vehicle id="7" x="272.18" y="639.21" angle="247.27" type="Sport" speed="1.98" pos="3.08" lane="47360672_0" slope="0.00"/>
    </timestep>
    <timestep time="23.00">
        <vehicle id="0" x="318.36" y="685.09" angle="246.48" type="Truck" speed="11.62" pos="4.97" lane="144152790#2_0" slope="0.00"/>
        <vehicle id="1" x="248.31" y="389.10" angle="173.20" type="Truck" speed="6.99" pos="0.63" lane=":603045554_2_0" slope="0.00"/>
        <vehicle id="2" x="403.88" y="663.59" angle="97.28" type="Sport" speed="13.29" pos="26.82" lane="228373950#2_0" slope="0.00"/>
        <vehicle id="3" x="458.99" y="517.99" angle="110.26" type="Car" speed="14.87" pos="97.80" lane="-47370578#3_0" slope="0.00"/>
        <vehicle id="4" x="570.49" y="526.76" angle="148.14" type="Car" speed="12.84" pos="26.27" lane="-228371100#0_0" slope="0.00"/>
        <vehicle id="5" x="543.11" y="449.74" angle="337.21" type="Sport" speed="11.10" pos="28.97" lane="-47370606#4_0" slope="0.00"/>
        <vehicle id="6" x="552.12" y="428.30" angle="337.21" type="Truck" speed="1.89" pos="5.72" lane="-47370606#4_0" slope="0.00"/>
        <vehicle id="7" x="267.67" y="637.32" angle="247.27" type="Sport" speed="4.89" pos="7.97" lane="47360672_0" slope="0.00"/>
    </timestep>
    <timestep time="24.00">
        <vehicle id="0" x="308.59" y="680.83" angle="246.48" type="Truck" speed="10.65" pos="15.63" lane="144152790#2_0" slope="0.00"/>
        <vehicle id="1" x="251.62" y="382.34" angle="136.67" type="Truck" speed="7.86" pos="1.92" lane=":603045533_2_0" slope="0.00"/>
        <vehicle id="2" x="416.11" y="658.62" angle="125.93" type="Sport" speed="13.62" pos="40.45" lane="228373950#2_0" slope="0.00"/>
        <vehicle id="3" x="472.75" y="512.91" angle="110.26" type="Car" speed="14.67" pos="112.47" lane="-47370578#3_0" slope="0.00"/>
        <vehicle id="4" x="577.89" y="514.86" angle="148.14" type="Car" speed="14.02" pos="40.28" lane="-228371100#0_0" slope="0.00"/>
        <vehicle id="5" x="538.18" y="458.61" angle="310.86" type="Sport" speed="10.34" pos="39.31" lane="-47370606#4_0" slope="0.00"/>
        <vehicle id="6" x="551.03" y="430.89" angle="337.21" type="Truck" speed="2.81" pos="8.52" lane="-47370606#4_0" slope="0.00"/>
        <vehicle id="7" x="261.01" y="634.53" angle="247.27" type="Sport" speed="7.22" pos="15.19" lane="47360672_0" slope="0.00"/>
        <vehicle id="8" x="321.91" y="686.63" angle="246.48" type="Car" speed="0.00" pos="1.10" lane="144152790#2_0" slope="0.00"/>
    </timestep>
    <timestep time="25.00">
        <vehicle id="0" x="299.31" y="676.79" angle="246.48" type="Truck" speed="10.12" pos="25.75" lane="144152790#2_0" slope="0.00"/>
        <vehicle id="1" x="259.03" y="380.26" angle="89.10" type="Truck" speed="8.01" pos="9.94" lane=":603045533_2_0" slope="0.00"/>
        <vehicle id="2" x="423.10" y="653.56" angle="125.93" type="Sport" speed="8.62" pos="49.07" lane="228373950#2_0" slope="0.00"/>
        <vehicle id="3" x="484.32" y="506.57" angle="125.00" type="Car" speed="13.30" pos="125.77" lane="-47370578#3_0" slope="0.00"/>
        <vehicle id="4" x="585.34" y="502.87" angle="148.14" type="Car" speed="14.11" pos="54.40" lane="-228371100#0_0" slope="0.00"/>
        <vehicle id="5" x="530.56" y="465.20" angle="310.94" type="Sport" speed="10.07" pos="1.69" lane=":603095405_0_0" slope="0.00"/>
        <vehicle id="6" x="549.47" y="434.60" angle="337.21" type="Truck" speed="4.02" pos="12.55" lane="-47370606#4_0" slope="0.00"/>
        <vehicle id="7" x="252.96" y="631.16" angle="247.27" type="Sport" speed="8.73" pos="23.92" lane="47360672_0" slope="0.00"/>
        <vehicle id="8" x="320.61" y="686.06" angle="246.48" type="Car" speed="1.42" pos="2.52" lane="144152790#2_0" slope="0.00"/>
    </timestep>
    <timestep time="26.00">
        <vehicle id="0" x="289.91" y="672.70" angle="246.48" type="Truck" speed="10.25" pos="36.00" lane="144152790#2_0" slope="0.00"/>
        <vehicle id="1" x="266.92" y="381.11" angle="90.27" type="Truck" speed="7.98" pos="6.33" lane=":603045559_1_0" slope="0.00"/>
        <vehicle id="2" x="428.38" y="649.98" angle="121.40" type="Sport" speed="6.39" pos="2.52" lane=":368243972_5_0" slope="0.00"/>
        <vehicle id="3" x="491.07" y="497.60" angle="154.46" type="Car" speed="11.42" pos="11.17" lane=":603095508_12_0" slope="0.00"/>
        <vehicle id="4" x="592.14" y="491.94" angle="148.14" type="Car" speed="12.87" pos="67.26" lane="-228371100#0_0" slope="0.00"/>
        <vehicle id="5" x="522.61" y="472.10" angle="310.97" type="Sport" speed="10.54" pos="1.13" lane="-47370606#3_0" slope="0.00"/>
        <vehicle id="6" x="547.55" y="439.16" angle="337.21" type="Truck" speed="4.94" pos="17.49" lane="-47370606#4_0" slope="0.00"/>
        <vehicle id="7" x="243.22" y="627.08" angle="247.27" type="Sport" speed="10.57" pos="34.48" lane="47360672_0" slope="0.00"/>
        <vehicle id="8" x="318.10" y="684.97" angle="246.48" type="Car" speed="2.74" pos="5.26" lane="144152790#2_0" slope="0.00"/>
    </timestep>
    <timestep time="27.00">
        <vehicle id="0" x="279.99" y="668.38" angle="246.48" type="Truck" speed="10.82" pos="46.82" lane="144152790#2_0" slope="0.00"/>
        <vehicle id="1" x="273.69" y="376.63" angle="125.15" type="Truck" speed="8.14" pos="7.15" lane="-47368026#2_0" slope="0.00"/>
        <vehicle id="2" x="435.56" y="648.75" angle="67.75" type="Sport" speed="7.66" pos="10.18" lane=":368243972_5_0" slope="0.00"/>
        <vehicle id="3" x="490.47" y="486.41" angle="192.40" type="Car" speed="11.35" pos="22.53" lane=":603095508_12_0" slope="0.00"/>
        <vehicle id="4" x="599.34" y="480.36" angle="148.14" type="Car" speed="13.63" pos="80.89" lane="-228371100#0_0" slope="0.00"/>
        <vehicle id="5" x="514.20" y="479.40" angle="311.21" type="Sport" speed="11.14" pos="12.26" lane="-47370606#3_0" slope="0.00"/>
        <vehicle id="6" x="545.12" y="444.94" angle="337.21" type="Truck" speed="6.27" pos="23.76" lane="-47370606#4_0" slope="0.00"/>
        <vehicle id="7" x="233.22" y="622.89" angle="247.27" type="Sport" speed="10.84" pos="45.33" lane="47360672_0" slope="0.00"/>
        <vehicle id="8" x="314.83" y="683.55" angle="246.48" type="Car" speed="3.56" pos="8.82" lane="144152790#2_0" slope="0.00"/>
        <vehicle id="9" x="202.67" y="626.17" angle="182.31" type="Truck" speed="0.00" pos="3.10" lane="618619080#2_0" slope="0.00"/>
    </timestep>
    <timestep time="28.00">
        <vehicle id="0" x="274.59" y="665.86" angle="243.47" type="Truck" speed="5.96" pos="2.22" lane=":603046482_1_0" slope="0.00"/>
        <vehicle id="1" x="281.71" y="372.34" angle="116.57" type="Truck" speed="9.11" pos="16.26" lane="-47368026#2_0" slope="0.00"/>
        <vehicle id="2" x="440.19" y="653.32" angle="41.70" type="Sport" speed="6.54" pos="4.76" lane="47425143#0_0" slope="0.00"/>
        <vehicle id="3" x="484.70" y="475.81" angle="223.63" type="Car" speed="12.39" pos="10.92" lane="-47370578#2_0" slope="0.00"/>
        <vehicle id="4" x="606.45" y="468.56" angle="149.33" type="Car" speed="13.78" pos="8.94" lane=":2370547808_2_0" slope="0.00"/>
        <vehicle id="5" x="506.16" y="486.45" angle="311.21" type="Sport" speed="10.69" pos="22.96" lane="-47370606#3_0" slope="0.00"/>
        <vehicle id="6" x="542.58" y="450.99" angle="337.21" type="Truck" speed="6.56" pos="30.32" lane="-47370606#4_0" slope="0.00"/>
        <vehicle id="7" x="225.33" y="619.25" angle="239.98" type="Sport" speed="8.70" pos="54.03" lane="47360672_0" slope="0.00"/>
        <vehicle id="8" x="309.89" y="681.40" angle="246.48" type="Car" speed="5.38" pos="14.21" lane="144152790#2_0" slope="0.00"/>
        <vehicle id="9" x="202.63" y="625.42" angle="182.31" type="Truck" speed="0.75" pos="3.85" lane="618619080#2_0" slope="0.00"/>
    </timestep>
    <timestep time="29.00">
        <vehicle id="0" x="272.12" y="661.31" angle="186.89" type="Truck" speed="5.78" pos="0.24" lane="-47360671_0" slope="0.00"/>
        <vehicle id="1" x="290.67" y="367.86" angle="116.57" type="Truck" speed="10.02" pos="26.28" lane="-47368026#2_0" slope="0.00"/>
        <vehicle id="2" x="445.47" y="659.25" angle="41.70" type="Sport" speed="7.94" pos="12.70" lane="47425143#0_0" slope="0.00"/>
        <vehicle id="3" x="474.81" y="465.43" angle="223.63" type="Car" speed="14.34" pos="25.26" lane="-47370578#2_0" slope="0.00"/>
        <vehicle id="4" x="612.46" y="458.42" angle="149.33" type="Car" speed="11.78" pos="20.72" lane=":2370547808_2_0" slope="0.00"/>
        <vehicle id="5" x="499.32" y="494.73" angle="321.22" type="Sport" speed="10.79" pos="6.53" lane=":603095508_5_0" slope="0.00"/>
        <vehicle id="6" x="539.48" y="457.48" angle="330.49" type="Truck" speed="7.26" pos="37.58" lane="-47370606#4_0" slope="0.00"/>
        <vehicle id="7" x="222.16" y="617.35" angle="236.66" type="Sport" speed="3.70" pos="0.50" lane=":cluster_2370547816_2370547817_2370547818_8_0" slope="0.00"/>
        <vehicle id="8" x="306.23" y="679.81" angle="246.48" type="Car" speed="3.99" pos="18.20" lane="144152790#2_0" slope="0.00"/>
        <vehicle id="9" x="203.16" y="623.75" angle="170.75" type="Truck" speed="1.76" pos="1.64" lane=":cluster_2370547816_2370547817_2370547818_1_0" slope="0.00"/>
    </timestep>
    <timestep time="30.00">
        <vehicle id="0" x="274.84" y="655.01" angle="156.63" type="Truck" speed="6.86" pos="7.10" lane="-47360671_0" slope="0.00"/>
        <vehicle id="1" x="300.72" y="362.84" angle="116.57" type="Truck" speed="11.24" pos="37.52" lane="-47368026#2_0" slope="0.00"/>
        <vehicle id="10" x="31.10" y="651.32" angle="153.93" type="Sport" speed="0.00" pos="1.10" lane="-47360658_0" slope="0.00"/>
        <vehicle id="2" x="451.66" y="665.32" angle="49.25" type="Sport" speed="8.68" pos="4.45" lane=":cluster_2370780687_2370780689_368243974_6_0" slope="0.00"/>
        <vehicle id="3" x="465.36" y="455.52" angle="223.63" type="Car" speed="13.69" pos="38.96" lane="-47370578#2_0" slope="0.00"/>
        <vehicle id="4" x="616.51" y="451.73" angle="148.38" type="Car" speed="7.82" pos="4.30" lane="228371097_0" slope="0.00"/>
        <vehicle id="5" x="492.50" y="502.91" angle="318.63" type="Sport" speed="10.65" pos="17.18" lane=":603095508_5_0" slope="0.00"/>
        <vehicle id="6" x="533.76" y="462.43" angle="310.86" type="Truck" speed="7.57" pos="45.15" lane="-47370606#4_0" slope="0.00"/>
        <vehicle id="7" x="219.63" y="614.66" angle="203.25" type="Sport" speed="3.81" pos="4.31" lane=":cluster_2370547816_2370547817_2370547818_8_0" slope="0.00"/>
        <vehicle id="8" x="301.20" y="677.62" angle="246.48" type="Car" speed="5.49" pos="23.69" lane="144152790#2_0" slope="0.00"/>
        <vehicle id="9" x="204.60" y="621.12" angle="151.01" type="Truck" speed="3.08" pos="4.72" lane=":cluster_2370547816_2370547817_2370547818_1_0" slope="0.00"/>
    </timestep>
    <timestep time="31.00">
        <vehicle id="0" x="277.46" y="648.83" angle="157.39" type="Truck" speed="6.72" pos="0.35" lane=":603046503_3_0" slope="0.00"/>
        <vehicle id="1" x="311.49" y="357.46" angle="116.57" type="Truck" speed="12.04" pos="49.56" lane="-47368026#2_0" slope="0.00"/>
        <vehicle id="10" x="32.18" y="649.12" angle="153.93" type="Sport" speed="2.45" pos="3.55" lane="-47360658_0" slope="0.00"/>
        <vehicle id="2" x="459.79" y="665.71" angle="119.56" type="Sport" speed="8.57" pos="13.03" lane=":cluster_2370780687_2370780689_368243974_6_0" slope="0.00"/>
        <vehicle id="3" x="455.22" y="444.68" angle="222.13" type="Car" speed="14.84" pos="53.80" lane="-47370578#2_0" slope="0.00"/>
        <vehicle id="4" x="617.36" y="446.23" angle="253.72" type="Car" speed="7.49" pos="1.83" lane=":455956186_0_0" slope="0.00"/>
        <vehicle id="5" x="484.19" y="510.57" angle="304.98" type="Sport" speed="11.34" pos="2.65" lane="47370578#3_0" slope="0.00"/>
        <vehicle id="6" x="527.47" y="467.88" angle="310.94" type="Truck" speed="8.32" pos="5.78" lane=":603095405_0_0" slope="0.00"/>
        <vehicle id="7" x="219.63" y="614.66" angle="203.25" type="Sport" speed="0.00" pos="4.31" lane=":cluster_2370547816_2370547817_2370547818_8_0" slope="0.00"/>
        <vehicle id="8" x="294.78" y="674.82" angle="246.48" type="Car" speed="7.00" pos="30.69" lane="144152790#2_0" slope="0.00"/>
        <vehicle id="9" x="207.84" y="618.27" angle="131.00" type="Truck" speed="4.32" pos="9.05" lane=":cluster_2370547816_2370547817_2370547818_1_0" slope="0.00"/>
    </timestep>
    <timestep time="32.00">
        <vehicle id="0" x="277.53" y="642.50" angle="194.36" type="Truck" speed="6.63" pos="6.98" lane=":603046503_3_0" slope="0.00"/>
        <vehicle id="1" x="322.96" y="351.72" angle="116.57" type="Truck" speed="12.83" pos="62.38" lane="-47368026#2_0" slope="0.00"/>
        <vehicle id="10" x="34.75" y="644.80" angle="125.63" type="Sport" speed="5.25" pos="8.80" lane="-47360658_0" slope="0.00"/>
        <vehicle id="2" x="466.39" y="660.64" angle="131.20" type="Sport" speed="8.35" pos="4.86" lane="-228371100#3_0" slope="0.00"/>
        <vehicle id="3" x="445.60" y="434.04" angle="222.13" type="Car" speed="14.35" pos="68.15" lane="-47370578#2_0" slope="0.00"/>
        <vehicle id="4" x="611.10" y="444.15" angle="244.17" type="Car" speed="6.61" pos="1.45" lane="38569906#0_0" slope="0.00"/>
        <vehicle id="5" x="474.87" y="515.54" angle="290.26" type="Sport" speed="10.65" pos="13.30" lane="47370578#3_0" slope="0.00"/>
        <vehicle id="6" x="521.16" y="473.36" angle="310.97" type="Truck" speed="8.37" pos="3.05" lane="-47370606#3_0" slope="0.00"/>
        <vehicle id="7" x="219.63" y="614.66" angle="203.25" type="Sport" speed="0.00" pos="4.31" lane=":cluster_2370547816_2370547817_2370547818_8_0" slope="0.00"/>
        <vehicle id="8" x="286.50" y="671.22" angle="246.48" type="Car" speed="9.03" pos="39.71" lane="144152790#2_0" slope="0.00"/>
        <vehicle id="9" x="212.59" y="615.73" angle="118.10" type="Truck" speed="5.39" pos="14.44" lane=":cluster_2370547816_2370547817_2370547818_1_0" slope="0.00"/>
    </timestep>
    <timestep time="33.00">
        <vehicle id="0" x="271.58" y="638.96" angle="247.27" type="Truck" speed="7.08" pos="3.73" lane="47360672_0" slope="0.00"/>
        <vehicle id="1" x="334.42" y="345.99" angle="116.57" type="Truck" speed="12.81" pos="75.20" lane="-47368026#2_0" slope="0.00"/>
        <vehicle id="10" x="42.42" y="644.35" angle="93.39" type="Sport" speed="7.69" pos="16.48" lane="-47360658_0" slope="0.00"/>
        <vehicle id="11" x="576.48" y="393.45" angle="52.88" type="Truck" speed="0.00" pos="1.75" lane="47368031#2_0" slope="0.00"/>
        <vehicle id="2" x="474.01" y="653.97" angle="131.20" type="Sport" speed="10.13" pos="14.99" lane="-228371100#3_0" slope="0.00"/>
        <vehicle id="3" x="435.93" y="422.96" angle="220.02" type="Car" speed="14.70" pos="0.87" lane="-47370578#1_0" slope="0.00"/>
        <vehicle id="4" x="602.98" y="440.22" angle="244.26" type="Car" speed="9.03" pos="3.54" lane="38569906#1_0" slope="0.00"/>