<?xml version="1.0" encoding="UTF-8"?>

<!-- generated on 08/02/19 12:21:44 by Eclipse SUMO Version 1.2.0
<configuration xmlns:xsi="http://www.w3.org/2001/XMLSchema-instance" xsi:noNamespaceSchemaLocation="http://sumo.dlr.de/xsd/sumoConfiguration.xsd">

    <input>
        <net-file value="mapNetconvert.net.xml"/>
        <route-files value="models/random/routes.rou.xml"/>
    </input>

    <output>
        <fcd-output value="C:\Users\darkm\Desktop\C4R\models\random\mapNetconvert.fcd"/>
    </output>

</configuration>
-->

<fcd-export xmlns:xsi="http://www.w3.org/2001/XMLSchema-instance" xsi:noNamespaceSchemaLocation="http://sumo.dlr.de/xsd/fcd_file.xsd">
    <timestep time="0.00">
        <vehicle id="0" x="619.11" y="446.74" angle="153.98" type="Truck" speed="0.00" pos="0.20" lane="702265271#1_0" slope="0.00"/>
    </timestep>
    <timestep time="1.00">
        <vehicle id="0" x="618.43" y="446.54" angle="172.81" type="Truck" speed="0.71" pos="0.71" lane=":455956186_0_0" slope="0.00"/>
    </timestep>
    <timestep time="2.00">
        <vehicle id="0" x="617.00" y="446.12" angle="233.92" type="Truck" speed="1.49" pos="2.20" lane=":455956186_0_0" slope="0.00"/>
    </timestep>
    <timestep time="3.00">
        <vehicle id="0" x="614.71" y="445.46" angle="253.72" type="Truck" speed="2.39" pos="4.58" lane=":455956186_0_0" slope="0.00"/>
        <vehicle id="1" x="476.19" y="782.55" angle="225.17" type="Truck" speed="0.00" pos="3.10" lane="-47371430_0" slope="0.00"/>
    </timestep>
    <timestep time="4.00">
        <vehicle id="0" x="611.19" y="444.19" angle="249.44" type="Truck" speed="3.76" pos="1.35" lane="38569906#0_0" slope="0.00"/>
        <vehicle id="1" x="475.43" y="781.80" angle="225.17" type="Truck" speed="1.07" pos="4.17" lane="-47371430_0" slope="0.00"/>
    </timestep>
    <timestep time="5.00">
        <vehicle id="0" x="606.79" y="442.06" angle="244.13" type="Truck" speed="4.90" pos="4.49" lane=":2397425909_0_0" slope="0.00"/>
        <vehicle id="1" x="473.83" y="780.21" angle="225.17" type="Truck" speed="2.26" pos="6.42" lane="-47371430_0" slope="0.00"/>
    </timestep>
    <timestep time="6.00">
        <vehicle id="0" x="601.63" y="439.57" angle="244.26" type="Truck" speed="5.73" pos="5.04" lane="38569906#1_0" slope="0.00"/>
        <vehicle id="1" x="471.72" y="778.12" angle="225.28" type="Truck" speed="2.97" pos="9.39" lane="-47371430_0" slope="0.00"/>
        <vehicle id="2" x="274.01" y="639.98" angle="247.27" type="Sport" speed="0.00" pos="1.10" lane="47360672_0" slope="0.00"/>
    </timestep>
    <timestep time="7.00">
        <vehicle id="0" x="595.25" y="436.49" angle="244.26" type="Truck" speed="7.08" pos="12.13" lane="38569906#1_0" slope="0.00"/>
        <vehicle id="1" x="468.61" y="775.70" angle="232.11" type="Truck" speed="3.95" pos="13.34" lane="-47371430_0" slope="0.00"/>
        <vehicle id="2" x="271.26" y="638.82" angle="247.27" type="Sport" speed="2.98" pos="4.08" lane="47360672_0" slope="0.00"/>
    </timestep>
    <timestep time="8.00">
        <vehicle id="0" x="587.83" y="432.92" angle="244.26" type="Truck" speed="8.24" pos="20.37" lane="38569906#1_0" slope="0.00"/>
        <vehicle id="1" x="464.88" y="772.80" angle="232.11" type="Truck" speed="4.72" pos="18.06" lane="-47371430_0" slope="0.00"/>
        <vehicle id="2" x="265.82" y="636.55" angle="247.27" type="Sport" speed="5.90" pos="9.98" lane="47360672_0" slope="0.00"/>
    </timestep>
    <timestep time="9.00">
        <vehicle id="0" x="579.74" y="429.01" angle="244.18" type="Truck" speed="8.98" pos="1.60" lane=":cluster_603087581_603642959_1_0" slope="0.00"/>
        <vehicle id="1" x="460.23" y="769.18" angle="232.11" type="Truck" speed="5.89" pos="23.95" lane="-47371430_0" slope="0.00"/>
        <vehicle id="2" x="257.71" y="633.15" angle="247.27" type="Sport" speed="8.80" pos="18.77" lane="47360672_0" slope="0.00"/>
        <vehicle id="3" x="31.10" y="651.32" angle="153.93" type="Car" speed="0.00" pos="1.10" lane="-47360658_0" slope="0.00"/>
    </timestep>
    <timestep time="10.00">
        <vehicle id="0" x="571.01" y="424.77" angle="244.11" type="Truck" speed="9.70" pos="11.30" lane=":cluster_603087581_603642959_1_0" slope="0.00"/>
        <vehicle id="1" x="454.54" y="764.75" angle="232.11" type="Truck" speed="7.22" pos="31.17" lane="-47371430_0" slope="0.00"/>
        <vehicle id="2" x="246.85" y="628.60" angle="247.27" type="Sport" speed="11.77" pos="30.54" lane="47360672_0" slope="0.00"/>
        <vehicle id="3" x="32.31" y="648.85" angle="153.93" type="Car" speed="2.75" pos="3.85" lane="-47360658_0" slope="0.00"/>
    </timestep>
    <timestep time="11.00">
        <vehicle id="0" x="561.28" y="420.05" angle="244.11" type="Truck" speed="10.81" pos="22.11" lane=":cluster_603087581_603642959_1_0" slope="0.00"/>
        <vehicle id="1" x="448.20" y="759.82" angle="232.11" type="Truck" speed="8.03" pos="39.20" lane="-47371430_0" slope="0.00"/>
        <vehicle id="2" x="234.30" y="623.34" angle="247.27" type="Sport" speed="13.61" pos="44.16" lane="47360672_0" slope="0.00"/>
        <vehicle id="3" x="34.34" y="644.83" angle="151.05" type="Car" speed="4.53" pos="8.38" lane="-47360658_0" slope="0.00"/>
    </timestep>
    <timestep time="12.00">
        <vehicle id="0" x="550.77" y="414.97" angle="244.17" type="Truck" speed="11.67" pos="10.78" lane=":603087580_1_0" slope="0.00"/>
        <vehicle id="1" x="440.91" y="754.14" angle="232.11" type="Truck" speed="9.24" pos="48.43" lane="-47371430_0" slope="0.00"/>
        <vehicle id="2" x="225.80" y="619.52" angle="239.98" type="Sport" speed="9.32" pos="53.48" lane="47360672_0" slope="0.00"/>
        <vehicle id="3" x="40.93" y="644.44" angle="93.39" type="Car" speed="6.61" pos="14.99" lane="-47360658_0" slope="0.00"/>
        <vehicle id="4" x="379.50" y="657.97" angle="68.10" type="Car" speed="0.00" pos="1.10" lane="228373950#2_0" slope="0.00"/>
    </timestep>
    <timestep time="13.00">
        <vehicle id="0" x="539.35" y="409.35" angle="243.70" type="Truck" speed="12.73" pos="10.27" lane="38569906#4_0" slope="0.00"/>
        <vehicle id="1" x="432.66" y="747.72" angle="232.11" type="Truck" speed="10.46" pos="58.89" lane="-47371430_0" slope="0.00"/>
        <vehicle id="2" x="221.98" y="617.22" angle="235.16" type="Sport" speed="4.47" pos="0.73" lane=":cluster_2370547816_2370547817_2370547818_8_0" slope="0.00"/>
        <vehicle id="3" x="49.83" y="643.91" angle="93.39" type="Car" speed="8.91" pos="23.90" lane="-47360658_0" slope="0.00"/>
        <vehicle id="4" x="381.04" y="658.59" angle="68.10" type="Car" speed="1.65" pos="2.75" lane="228373950#2_0" slope="0.00"/>
    </timestep>
    <timestep time="14.00">
        <vehicle id="0" x="527.04" y="403.27" angle="243.70" type="Truck" speed="13.73" pos="24.00" lane="38569906#4_0" slope="0.00"/>
        <vehicle id="1" x="423.60" y="740.67" angle="232.11" type="Truck" speed="11.49" pos="70.38" lane="-47371430_0" slope="0.00"/>
        <vehicle id="2" x="220.15" y="613.21" angle="144.88" type="Sport" speed="5.30" pos="1.62" lane=":cluster_2370547816_2370547817_2370547818_11_0" slope="0.00"/>
        <vehicle id="3" x="60.89" y="643.25" angle="93.39" type="Car" speed="11.09" pos="34.99" lane="-47360658_0" slope="0.00"/>
        <vehicle id="4" x="385.35" y="660.32" angle="68.10" type="Car" speed="4.65" pos="7.41" lane="228373950#2_0" slope="0.00"/>
    </timestep>
    <timestep time="15.00">
        <vehicle id="0" x="516.18" y="393.72" angle="222.08" type="Truck" speed="14.69" pos="38.69" lane="38569906#4_0" slope="0.00"/>
        <vehicle id="1" x="414.91" y="733.90" angle="232.11" type="Truck" speed="11.01" pos="81.39" lane="-47371430_0" slope="0.00"/>
        <vehicle id="2" x="223.69" y="611.34" angle="111.44" type="Sport" speed="4.08" pos="0.52" lane="228373950#0_0" slope="0.00"/>
        <vehicle id="3" x="74.54" y="642.44" angle="93.39" type="Car" speed="13.66" pos="48.65" lane="-47360658_0" slope="0.00"/>
        <vehicle id="4" x="392.00" y="663.00" angle="68.10" type="Car" speed="7.16" pos="14.57" lane="228373950#2_0" slope="0.00"/>
        <vehicle id="5" x="435.78" y="422.79" angle="219.89" type="Sport" speed="0.00" pos="1.10" lane="-47370578#1_0" slope="0.00"/>
    </timestep>
    <timestep time="16.00">
        <vehicle id="0" x="506.62" y="383.12" angle="222.08" type="Truck" speed="14.27" pos="52.96" lane="38569906#4_0" slope="0.00"/>
        <vehicle id="1" x="409.89" y="730.00" angle="232.11" type="Truck" speed="6.36" pos="87.74" lane="-47371430_0" slope="0.00"/>
        <vehicle id="2" x="230.32" y="610.12" angle="95.47" type="Sport" speed="6.78" pos="7.30" lane="228373950#0_0" slope="0.00"/>
        <vehicle id="3" x="89.46" y="641.56" angle="93.39" type="Car" speed="14.95" pos="63.61" lane="-47360658_0" slope="0.00"/>
        <vehicle id="4" x="401.61" y="663.88" angle="97.28" type="Car" speed="9.96" pos="24.53" lane="228373950#2_0" slope="0.00"/>
        <vehicle id="5" x="434.31" y="421.02" angle="219.89" type="Sport" speed="2.30" pos="3.40" lane="-47370578#1_0" slope="0.00"/>
    </timestep>
    <timestep time="17.00">
        <vehicle id="0" x="497.10" y="372.48" angle="221.75" type="Truck" speed="14.28" pos="11.67" lane=":603087557_1_0" slope="0.00"/>
        <vehicle id="1" x="403.83" y="726.90" angle="252.55" type="Truck" speed="6.93" pos="4.77" lane=":603046488_0_0" slope="0.00"/>
        <vehicle id="2" x="238.72" y="609.32" angle="95.47" type="Sport" speed="8.44" pos="15.75" lane="228373950#0_0" slope="0.00"/>
        <vehicle id="3" x="104.38" y="640.67" angle="93.39" type="Car" speed="14.94" pos="78.54" lane="-47360658_0" slope="0.00"/>
        <vehicle id="4" x="413.19" y="660.74" angle="125.93" type="Car" speed="12.31" pos="36.84" lane="228373950#2_0" slope="0.00"/>
        <vehicle id="5" x="431.77" y="417.99" angle="219.89" type="Sport" speed="3.96" pos="7.35" lane="-47370578#1_0" slope="0.00"/>
    </timestep>
    <timestep time="18.00">
        <vehicle id="0" x="487.56" y="361.69" angle="221.39" type="Truck" speed="14.39" pos="11.61" lane="38569906#5_0" slope="0.00"/>
        <vehicle id="1" x="397.86" y="729.33" angle="305.19" type="Truck" speed="6.66" pos="0.28" lane="228371100#6_0" slope="0.00"/>
        <vehicle id="2" x="249.90" y="609.11" angle="79.49" type="Sport" speed="11.27" pos="27.02" lane="228373950#0_0" slope="0.00"/>
        <vehicle id="3" x="118.32" y="639.85" angle="93.39" type="Car" speed="13.97" pos="92.52" lane="-47360658_0" slope="0.00"/>
        <vehicle id="4" x="421.39" y="654.80" angle="125.93" type="Car" speed="10.13" pos="46.97" lane="228373950#2_0" slope="0.00"/>
        <vehicle id="5" x="427.44" y="412.80" angle="219.89" type="Sport" speed="6.76" pos="14.11" lane="-47370578#1_0" slope="0.00"/>
    </timestep>
    <timestep time="19.00">
        <vehicle id="0" x="478.14" y="351.00" angle="221.39" type="Truck" speed="14.25" pos="25.85" lane="38569906#5_0" slope="0.00"/>
        <vehicle id="1" x="392.04" y="734.59" angle="312.12" type="Truck" speed="7.85" pos="8.13" lane="228371100#6_0" slope="0.00"/>
        <vehicle id="2" x="262.87" y="611.51" angle="79.49" type="Sport" speed="13.18" pos="40.20" lane="228373950#0_0" slope="0.00"/>
        <vehicle id="3" x="132.65" y="639.00" angle="93.39" type="Car" speed="14.35" pos="106.87" lane="-47360658_0" slope="0.00"/>
        <vehicle id="4" x="425.54" y="651.79" angle="125.93" type="Car" speed="5.13" pos="52.09" lane="228373950#2_0" slope="0.00"/>
        <vehicle id="5" x="421.62" y="405.84" angle="219.89" type="Sport" speed="9.07" pos="23.19" lane="-47370578#1_0" slope="0.00"/>
        <vehicle id="6" x="395.77" y="731.22" angle="312.12" type="Truck" speed="0.00" pos="3.10" lane="228371100#6_0" slope="0.00"/>
    </timestep>
    <timestep time="20.00">
        <vehicle id="0" x="468.55" y="340.12" angle="221.39" type="Truck" speed="14.50" pos="40.36" lane="38569906#5_0" slope="0.00"/>
        <vehicle id="1" x="385.29" y="740.69" angle="312.12" type="Truck" speed="9.09" pos="17.22" lane="228371100#6_0" slope="0.00"/>
        <vehicle id="2" x="275.69" y="616.22" angle="68.09" type="Sport" speed="13.69" pos="53.89" lane="228373950#0_0" slope="0.00"/>
        <vehicle id="3" x="146.20" y="638.19" angle="93.39" type="Car" speed="13.57" pos="120.44" lane="-47360658_0" slope="0.00"/>
        <vehicle id="4" x="431.18" y="648.70" angle="108.03" type="Car" speed="6.47" pos="5.62" lane=":368243972_5_0" slope="0.00"/>
        <vehicle id="5" x="414.52" y="397.34" angle="219.89" type="Sport" speed="11.08" pos="34.26" lane="-47370578#1_0" slope="0.00"/>
        <vehicle id="6" x="395.39" y="731.56" angle="312.12" type="Truck" speed="0.51" pos="3.61" lane="228371100#6_0" slope="0.00"/>
    </timestep>
    <timestep time="21.00">
        <vehicle id="0" x="459.20" y="329.57" angle="221.61" type="Truck" speed="14.10" pos="2.68" lane="38569906#6_0" slope="0.00"/>
        <vehicle id="1" x="377.88" y="747.40" angle="312.12" type="Truck" speed="10.00" pos="27.22" lane="228371100#6_0" slope="0.00"/>
        <vehicle id="2" x="288.17" y="621.24" angle="68.09" type="Sport" speed="13.46" pos="67.34" lane="228373950#0_0" slope="0.00"/>
        <vehicle id="3" x="160.46" y="637.35" angle="93.39" type="Car" speed="14.29" pos="134.73" lane="-47360658_0" slope="0.00"/>
        <vehicle id="4" x="438.00" y="650.86" angle="41.70" type="Car" speed="7.81" pos="1.47" lane="47425143#0_0" slope="0.00"/>
        <vehicle id="5" x="410.62" y="392.67" angle="219.89" type="Sport" speed="6.08" pos="40.34" lane="-47370578#1_0" slope="0.00"/>
        <vehicle id="6" x="394.33" y="732.52" angle="312.12" type="Truck" speed="1.44" pos="5.05" lane="228371100#6_0" slope="0.00"/>
        <vehicle id="7" x="186.24" y="195.16" angle="287.17" type="Sport" speed="0.00" pos="1.10" lane="-47360603#1_0" slope="0.00"/>
    </timestep>
    <timestep time="22.00">
        <vehicle id="0" x="449.63" y="318.80" angle="221.62" type="Truck" speed="14.41" pos="17.09" lane="38569906#6_0" slope="0.00"/>
        <vehicle id="1" x="369.77" y="754.73" angle="312.12" type="Truck" speed="10.93" pos="38.16" lane="228371100#6_0" slope="0.00"/>
        <vehicle id="2" x="299.95" y="625.98" angle="68.09" type="Sport" speed="12.69" pos="80.04" lane="228373950#0_0" slope="0.00"/>
        <vehicle id="3" x="174.79" y="636.50" angle="93.39" type="Car" speed="14.35" pos="149.08" lane="-47360658_0" slope="0.00"/>
        <vehicle id="4" x="444.07" y="657.67" angle="41.70" type="Car" speed="9.11" pos="10.58" lane="47425143#0_0" slope="0.00"/>
        <vehicle id="5" x="410.41" y="389.90" angle="158.04" type="Sport" speed="3.03" pos="0.02" lane=":603095449_6_0" slope="0.00"/>
        <vehicle id="6" x="392.46" y="734.21" angle="312.12" type="Truck" speed="2.51" pos="7.56" lane="228371100#6_0" slope="0.00"/>
        <vehicle id="7" x="184.22" y="195.79" angle="287.17" type="Sport" speed="2.12" pos="3.22" lane="-47360603#1_0" slope="0.00"/>
    </timestep>
    <timestep time="23.00">
        <vehicle id="0" x="440.13" y="308.10" angle="221.62" type="Truck" speed="14.30" pos="31.39" lane="38569906#6_0" slope="0.00"/>
        <vehicle id="1" x="360.92" y="762.73" angle="312.12" type="Truck" speed="11.93" pos="50.09" lane="228371100#6_0" slope="0.00"/>
        <vehicle id="2" x="312.07" y="630.86" angle="68.09" type="Sport" speed="13.07" pos="93.11" lane="228373950#0_0" slope="0.00"/>
        <vehicle id="3" x="187.43" y="635.75" angle="93.39" type="Car" speed="12.67" pos="161.74" lane="-47360658_0" slope="0.00"/>
        <vehicle id="4" x="446.97" y="660.92" angle="41.70" type="Car" speed="4.36" pos="14.94" lane="47425143#0_0" slope="0.00"/>
        <vehicle id="5" x="413.04" y="390.57" angle="53.21" type="Sport" speed="2.92" pos="0.60" lane="47370578#1_0" slope="0.00"/>
        <vehicle id="6" x="390.04" y="736.40" angle="312.12" type="Truck" speed="3.28" pos="10.83" lane="228371100#6_0" slope="0.00"/>
        <vehicle id="7" x="179.39" y="197.28" angle="287.17" type="Sport" speed="5.05" pos="8.26" lane="-47360603#1_0" slope="0.00"/>
    </timestep>
    <timestep time="24.00">
        <vehicle id="0" x="430.61" y="297.63" angle="222.43" type="Truck" speed="14.15" pos="11.12" lane=":446038580_0_0" slope="0.00"/>
        <vehicle id="1" x="355.20" y="767.90" angle="312.12" type="Truck" speed="7.71" pos="57.79" lane="228371100#6_0" slope="0.00"/>
        <vehicle id="2" x="323.89" y="635.61" angle="68.10" type="Sport" speed="12.74" pos="2.28" lane="228373950#1_0" slope="0.00"/>
        <vehicle id="3" x="197.04" y="635.18" angle="93.39" type="Car" speed="9.62" pos="171.37" lane="-47360658_0" slope="0.00"/>
        <vehicle id="4" x="452.48" y="665.69" angle="63.98" type="Car" speed="7.35" pos="5.36" lane=":cluster_2370780687_2370780689_368243974_6_0" slope="0.00"/>
        <vehicle id="5" x="416.29" y="394.47" angle="39.89" type="Sport" speed="5.08" pos="5.68" lane="47370578#1_0" slope="0.00"/>
        <vehicle id="6" x="386.68" y="739.44" angle="312.12" type="Truck" speed="4.52" pos="15.35" lane="228371100#6_0" slope="0.00"/>
        <vehicle id="7" x="172.77" y="199.33" angle="287.17" type="Sport" speed="6.93" pos="15.20" lane="-47360603#1_0" slope="0.00"/>
        <vehicle id="8" x="548.37" y="324.54" angle="198.70" type="Car" speed="0.00" pos="1.10" lane="47368032#1_0" slope="0.00"/>
    </timestep>
    <timestep time="25.00">
        <vehicle id="0" x="420.84" y="287.15" angle="223.04" type="Truck" speed="14.34" pos="0.66" lane=":603087542_1_0" slope="0.00"/>
        <vehicle id="1" x="352.27" y="769.27" angle="292.50" type="Truck" speed="3.42" pos="1.61" lane=":cluster_2370547828_603046474_1_0" slope="0.00"/>
        <vehicle id="2" x="336.30" y="640.60" angle="68.10" type="Sport" speed="13.38" pos="15.66" lane="228373950#1_0" slope="0.00"/>
        <vehicle id="3" x="202.26" y="632.22" angle="151.08" type="Car" speed="6.39" pos="6.08" lane=":cluster_2370547823_603046365_8_0" slope="0.00"/>
        <vehicle id="4" x="459.63" y="665.81" angle="115.05" type="Car" speed="7.48" pos="12.84" lane=":cluster_2370780687_2370780689_368243974_6_0" slope="0.00"/>
        <vehicle id="5" x="421.37" y="400.54" angle="39.89" type="Sport" speed="7.91" pos="13.59" lane="47370578#1_0" slope="0.00"/>
        <vehicle id="6" x="382.56" y="743.16" angle="312.12" type="Truck" speed="5.55" pos="20.90" lane="228371100#6_0" slope="0.00"/>
        <vehicle id="7" x="163.63" y="202.15" angle="287.17" type="Sport" speed="9.56" pos="24.76" lane="-47360603#1_0" slope="0.00"/>
        <vehicle id="8" x="547.72" y="322.62" angle="198.70" type="Car" speed="2.02" pos="3.12" lane="47368032#1_0" slope="0.00"/>
    </timestep>
    <timestep time="26.00">
        <vehicle id="0" x="411.16" y="276.56" angle="222.31" type="Truck" speed="14.34" pos="0.71" lane="38569906#8_0" slope="0.00"/>
        <vehicle id="1" x="351.65" y="766.98" angle="198.36" type="Truck" speed="2.83" pos="2.10" lane=":cluster_2370547828_603046474_7_0" slope="0.00"/>
        <vehicle id="2" x="348.63" y="645.56" angle="68.10" type="Sport" speed="13.29" pos="28.95" lane="228373950#1_0" slope="0.00"/>
        <vehicle id="3" x="202.65" y="625.86" angle="182.31" type="Car" speed="6.45" pos="3.41" lane="618619080#2_0" slope="0.00"/>
        <vehicle id="4" x="465.85" y="661.11" angle="131.20" type="Car" speed="7.82" pos="4.15" lane="-228371100#3_0" slope="0.00"/>
        <vehicle id="5" x="427.89" y="408.34" angle="39.89" type="Sport" speed="10.17" pos="23.76" lane="47370578#1_0" slope="0.00"/>
        <vehicle id="6" x="378.87" y="746.50" angle="312.12" type="Truck" speed="4.97" pos="25.88" lane="228371100#6_0" slope="0.00"/>
        <vehicle id="7" x="153.90" y="205.16" angle="287.17" type="Sport" speed="10.19" pos="34.95" lane="-47360603#1_0" slope="0.00"/>
        <vehicle id="8" x="546.37" y="318.63" angle="198.70" type="Car" speed="4.22" pos="7.34" lane="47368032#1_0" slope="0.00"/>
    </timestep>
    <timestep time="27.00">
        <vehicle id="0" x="401.49" y="265.74" angle="221.78" type="Truck" speed="14.51" pos="15.22" lane="38569906#8_0" slope="0.00"/>
        <vehicle id="1" x="353.59" y="765.04" angle="137.13" type="Truck" speed="2.78" pos="2.53" lane="-228371100#6_1" slope="0.00"/>
        <vehicle id="2" x="361.61" y="650.77" angle="68.10" type="Sport" speed="13.99" pos="42.93" lane="228373950#1_0" slope="0.00"/>
        <vehicle id="3" x="206.64" y="619.27" angle="132.09" type="Car" speed="8.04" pos="7.48" lane=":cluster_2370547816_2370547817_2370547818_1_0" slope="0.00"/>
        <vehicle id="4" x="475.80" y="656.65" angle="131.20" type="Car" speed="10.41" pos="14.56" lane="-228371100#3_1" slope="0.00"/>
        <vehicle id="5" x="434.91" y="416.75" angle="39.89" type="Sport" speed="10.95" pos="34.71" lane="47370578#1_0" slope="0.00"/>
        <vehicle id="6" x="375.26" y="749.76" angle="312.12" type="Truck" speed="4.87" pos="30.75" lane="228371100#6_0" slope="0.00"/>
        <vehicle id="7" x="148.45" y="206.84" angle="287.17" type="Sport" speed="5.70" pos="40.65" lane="-47360603#1_0" slope="0.00"/>
        <vehicle id="8" x="544.21" y="312.37" angle="200.87" type="Car" speed="6.63" pos="13.97" lane="47368032#1_0" slope="0.00"/>
        <vehicle id="9" x="437.22" y="603.07" angle="347.79" type="Truck" speed="0.00" pos="3.10" lane="47370578#4_0" slope="0.00"/>
    </timestep>
    <timestep time="28.00">
        <vehicle id="0" x="394.17" y="257.55" angle="221.78" type="Truck" speed="10.98" pos="26.20" lane="38569906#8_0" slope="0.00"/>
        <vehicle id="1" x="356.42" y="762.48" angle="132.12" type="Truck" speed="3.81" pos="6.35" lane="-228371100#6_1" slope="0.00"/>
        <vehicle id="2" x="373.69" y="655.63" angle="68.07" type="Sport" speed="13.03" pos="4.24" lane=":2370547824_0_0" slope="0.00"/>
        <vehicle id="3" x="216.07" y="614.18" angle="110.65" type="Car" speed="10.77" pos="18.25" lane=":cluster_2370547816_2370547817_2370547818_1_0" slope="0.00"/>
        <vehicle id="4" x="485.00" y="648.59" angle="131.20" type="Car" speed="12.24" pos="26.80" lane="-228371100#3_1" slope="0.00"/>
        <vehicle id="5" x="441.91" y="424.99" angle="40.97" type="Sport" speed="10.82" pos="4.52" lane=":603095456_4_0" slope="0.00"/>
        <vehicle id="6" x="370.80" y="753.80" angle="312.12" type="Truck" speed="6.01" pos="36.77" lane="228371100#6_0" slope="0.00"/>
        <vehicle id="7" x="145.53" y="206.27" angle="233.18" type="Sport" speed="3.23" pos="2.12" lane=":603087539_5_0" slope="0.00"/>
        <vehicle id="8" x="539.08" y="305.64" angle="217.33" type="Car" speed="8.46" pos="22.43" lane="47368032#1_0" slope="0.00"/>
        <vehicle id="9" x="437.00" y="604.10" angle="347.79" type="Truck" speed="1.05" pos="4.15" lane="47370578#4_0" slope="0.00"/>
    </timestep>
    <timestep time="29.00">
        <vehicle id="0" x="390.29" y="252.43" angle="211.92" type="Truck" speed="6.45" pos="2.32" lane=":446038576_1_0" slope="0.00"/>
        <vehicle id="1" x="359.93" y="759.31" angle="132.12" type="Truck" speed="4.74" pos="11.09" lane="-228371100#6_1" slope="0.00"/>
        <vehicle id="2" x="385.67" y="660.45" angle="68.10" type="Sport" speed="12.91" pos="7.75" lane="228373950#2_0" slope="0.00"/>
        <vehicle id="3" x="226.91" y="610.45" angle="98.65" type="Car" speed="11.49" pos="3.88" lane="228373950#0_0" slope="0.00"/>
        <vehicle id="4" x="495.61" y="639.36" angle="131.01" type="Car" speed="14.05" pos="7.37" lane=":cluster_2370780675_603095583_603103024_13_1" slope="0.00"/>
        <vehicle id="5" x="449.47" y="433.55" angle="42.13" type="Sport" speed="11.42" pos="4.68" lane="47370578#2_0" slope="0.00"/>
        <vehicle id="6" x="365.50" y="758.59" angle="312.12" type="Truck" speed="7.14" pos="43.91" lane="228371100#6_0" slope="0.00"/>
        <vehicle id="7" x="146.71" y="204.02" angle="131.11" type="Sport" speed="2.86" pos="0.30" lane="47360603#1_0" slope="0.00"/>
        <vehicle id="8" x="535.66" y="301.16" angle="217.33" type="Car" speed="5.63" pos="28.06" lane="47368032#1_0" slope="0.00"/>
        <vehicle id="9" x="436.49" y="606.44" angle="347.79" type="Truck" speed="2.39" pos="6.55" lane="47370578#4_0" slope="0.00"/>
    </timestep>
    <timestep time="30.00">
        <vehicle id="0" x="392.89" y="246.12" angle="142.83" type="Truck" speed="7.15" pos="5.59" lane=":446038576_6_0" slope="0.00"/>
        <vehicle id="1" x="364.25" y="755.41" angle="132.12" type="Truck" speed="5.82" pos="16.90" lane="-228371100#6_1" slope="0.00"/>
        <vehicle id="10" x="171.97" y="1.28" angle="353.29" type="Sport" speed="0.00" pos="1.10" lane="-47360621_0" slope="0.00"/>
        <vehicle id="2" x="398.17" y="664.32" angle="97.28" type="Sport" speed="13.32" pos="21.06" lane="228373950#2_0" slope="0.00"/>
        <vehicle id="3" x="240.05" y="609.19" angle="95.47" type="Car" speed="13.20" pos="17.08" lane="228373950#0_0" slope="0.00"/>
        <vehicle id="4" x="505.28" y="630.52" angle="133.61" type="Car" speed="13.09" pos="20.47" lane=":cluster_2370780675_603095583_603103024_13_1" slope="0.00"/>
        <vehicle id="5" x="456.30" y="441.10" angle="42.13" type="Sport" speed="10.18" pos="14.86" lane="47370578#2_0" slope="0.00"/>
        <vehicle id="6" x="359.60" y="763.92" angle="312.12" type="Truck" speed="7.95" pos="51.86" lane="228371100#6_0" slope="0.00"/>
        <vehicle id="7" x="152.11" y="202.36" angle="107.17" type="Sport" speed="5.64" pos="5.94" lane="47360603#1_0" slope="0.00"/>
        <vehicle id="8" x="530.72" y="294.82" angle="219.48" type="Car" speed="8.04" pos="4.98" lane=":452017271_1_0" slope="0.00"/>
        <vehicle id="9" x="435.83" y="609.51" angle="347.79" type="Truck" speed="3.14" pos="9.68" lane="47370578#4_0" slope="0.00"/>
    </timestep>
    <timestep time="31.00">
        <vehicle id="0" x="398.08" y="241.29" angle="131.49" type="Truck" speed="7.09" pos="5.10" lane="37975229#0_0" slope="0.00"/>
        <vehicle id="1" x="369.54" y="750.62" angle="132.12" type="Truck" speed="7.13" pos="24.03" lane="-228371100#6_1" slope="0.00"/>
        <vehicle id="10" x="171.74" y="3.28" angle="353.29" type="Sport" speed="2.01" pos="3.11" lane="-47360621_0" slope="0.00"/>
        <vehicle id="2" x="410.61" y="662.61" angle="104.66" type="Sport" speed="12.59" pos="33.66" lane="228373950#2_0" slope="0.00"/>
        <vehicle id="3" x="253.74" y="609.82" angle="79.49" type="Car" speed="13.83" pos="30.91" lane="228373950#0_0" slope="0.00"/>
        <vehicle id="4" x="513.98" y="620.90" angle="143.11" type="Car" speed="12.93" pos="5.90" lane="-228371100#1_1" slope="0.00"/>
        <vehicle id="5" x="464.10" y="449.56" angle="43.64" type="Sport" speed="11.51" pos="26.37" lane="47370578#2_0" slope="0.00"/>
        <vehicle id="6" x="354.40" y="768.62" angle="312.12" type="Truck" speed="7.00" pos="58.86" lane="228371100#6_0" slope="0.00"/>
        <vehicle id="7" x="159.10" y="200.19" angle="107.17" type="Sport" speed="7.33" pos="13.26" lane="47360603#1_0" slope="0.00"/>
        <vehicle id="8" x="524.20" y="287.39" angle="222.65" type="Car" speed="9.89" pos="0.32" lane="47368032#2_0" slope="0.00"/>
        <vehicle id="9" x="434.90" y="613.83" angle="347.79" type="Truck" speed="4.42" pos="14.10" lane="47370578#4_0" slope="0.00"/>
    </timestep>
    <timestep time="32.00">
        <vehicle id="0" x="402.28" y="234.58" angle="166.43" type="Truck" speed="8.30" pos="13.40" lane="37975229#0_0" slope="0.00"/>
        <vehicle id="1" x="375.70" y="745.05" angle="132.12" type="Truck" speed="8.32" pos="32.35" lane="-228371100#6_1" slope="0.00"/>
        <vehicle id="10" x="171.22" y="7.66" angle="353.29" type="Sport" speed="4.42" pos="7.52" lane="-47360621_0" slope="0.00"/>
        <vehicle id="2" x="419.68" y="656.04" angle="125.93" type="Sport" speed="11.20" pos="44.85" lane="228373950#2_0" slope="0.00"/>
        <vehicle id="3" x="268.11" y="613.17" angle="68.09" type="Car" speed="14.81" pos="45.73" lane="228373950#0_0" slope="0.00"/>
        <vehicle id="4" x="522.10" y="609.82" angle="144.47" type="Car" speed="13.67" pos="19.57" lane="-228371100#1_1" slope="0.00"/>
        <vehicle id="5" x="472.00" y="457.85" angle="43.64" type="Sport" speed="11.46" pos="37.82" lane="47370578#2_0" slope="0.00"/>
        <vehicle id="6" x="351.52" y="768.76" angle="268.19" type="Truck" speed="3.33" pos="0.25" lane=":cluster_2370547828_603046474_7_0" slope="0.00"/>
        <vehicle id="7" x="168.78" y="197.20" angle="107.17" type="Sport" speed="10.13" pos="23.39" lane="47360603#1_0" slope="0.00"/>
        <vehicle id="8" x="515.75" y="278.34" angle="223.07" type="Car" speed="12.38" pos="12.70" lane="47368032#2_0" slope="0.00"/>
        <vehicle id="9" x="433.80" y="618.91" angle="347.79" type="Truck" speed="5.20" pos="19.30" lane="47370578#4_0" slope="0.00"/>
    </timestep>
    <timestep time="33.00">
        <vehicle id="0" x="404.54" y="225.22" angle="166.43" type="Truck" speed="9.63" pos="23.03" lane="37975229#0_0" slope="0.00"/>
        <vehicle id="1" x="382.62" y="738.79" angle="132.12" type="Truck" speed="9.33" pos="41.68" lane="-228371100#6_1" slope="0.00"/>
        <vehicle id="10" x="170.41" y="14.53" angle="353.29" type="Sport" speed="6.91" pos="14.44" lane="-47360621_0" slope="0.00"/>
        <vehicle id="11" x="434.98" y="583.52" angle="189.69" type="Truck" speed="0.00" pos="3.10" lane="-47370578#3_0" slope="0.00"/>
        <vehicle id="2" x="424.70" y="652.40" angle="125.93" type="Sport" speed="6.20" pos="51.05" lane="228373950#2_0" slope="0.00"/>
        <vehicle id="3" x="281.46" y="618.54" angle="68.09" type="Car" speed="14.38" pos="60.11" lane="228373950#0_0" slope="0.00"/>