<?xml version="1.0" encoding="UTF-8"?>

<!-- generated on 07/30/19 11:19:32 by Eclipse SUMO Version 1.1.0
<configuration xmlns:xsi="http://www.w3.org/2001/XMLSchema-instance" xsi:noNamespaceSchemaLocation="http://sumo.dlr.de/xsd/sumoConfiguration.xsd">

    <input>
        <net-file value="mapNetconvert.net.xml"/>
        <route-files value="models/random/routes.rou.xml"/>
    </input>

    <output>
        <fcd-output value="C:\Users\Neblis\Desktop\C4R\models\random\mapNetconvert.fcd"/>
    </output>

</configuration>
-->

<fcd-export xmlns:xsi="http://www.w3.org/2001/XMLSchema-instance" xsi:noNamespaceSchemaLocation="http://sumo.dlr.de/xsd/fcd_file.xsd">
    <timestep time="0.00">
        <vehicle id="0" x="1219.88" y="848.21" angle="249.10" type="Truck" speed="0.00" pos="3.10" lane="-503322109_0" slope="0.00"/>
    </timestep>
    <timestep time="1.00">
        <vehicle id="0" x="1219.16" y="847.94" angle="249.10" type="Truck" speed="0.78" pos="3.88" lane="-503322109_0" slope="0.00"/>
    </timestep>
    <timestep time="2.00">
        <vehicle id="0" x="1217.59" y="847.34" angle="249.10" type="Truck" speed="1.68" pos="5.55" lane="-503322109_0" slope="0.00"/>
    </timestep>
    <timestep time="3.00">
        <vehicle id="0" x="1214.75" y="846.25" angle="249.10" type="Truck" speed="3.05" pos="8.60" lane="-503322109_0" slope="0.00"/>
        <vehicle id="1" x="902.82" y="702.63" angle="327.20" type="Truck" speed="0.00" pos="3.10" lane="503322107_0" slope="0.00"/>
    </timestep>
    <timestep time="4.00">
        <vehicle id="0" x="1210.98" y="844.81" angle="249.10" type="Truck" speed="4.03" pos="12.63" lane="-503322109_0" slope="0.00"/>
        <vehicle id="1" x="902.25" y="703.51" angle="327.20" type="Truck" speed="1.06" pos="4.16" lane="503322107_0" slope="0.00"/>
    </timestep>
    <timestep time="5.00">
        <vehicle id="0" x="1206.39" y="843.06" angle="249.10" type="Truck" speed="4.91" pos="17.54" lane="-503322109_0" slope="0.00"/>
        <vehicle id="1" x="900.93" y="705.55" angle="327.20" type="Truck" speed="2.43" pos="6.58" lane="503322107_0" slope="0.00"/>
    </timestep>
    <timestep time="6.00">
        <vehicle id="0" x="1200.85" y="840.94" angle="249.10" type="Truck" speed="5.93" pos="23.48" lane="-503322109_0" slope="0.00"/>
        <vehicle id="1" x="898.96" y="708.62" angle="327.20" type="Truck" speed="3.65" pos="10.23" lane="503322107_0" slope="0.00"/>
    </timestep>
    <timestep time="7.00">
        <vehicle id="0" x="1198.87" y="840.19" angle="249.10" type="Truck" speed="2.12" pos="25.59" lane="-503322109_0" slope="0.00"/>
        <vehicle id="1" x="896.50" y="712.43" angle="327.20" type="Truck" speed="4.53" pos="14.76" lane="503322107_0" slope="0.00"/>
    </timestep>
    <timestep time="8.00">
        <vehicle id="0" x="1198.87" y="840.19" angle="249.10" type="Truck" speed="0.00" pos="25.60" lane="-503322109_0" slope="0.00"/>
        <vehicle id="1" x="893.54" y="717.02" angle="327.20" type="Truck" speed="5.46" pos="20.22" lane="503322107_0" slope="0.00"/>
    </timestep>
    <timestep time="9.00">
        <vehicle id="0" x="1198.87" y="840.19" angle="249.10" type="Truck" speed="0.00" pos="25.60" lane="-503322109_0" slope="0.00"/>
        <vehicle id="1" x="891.09" y="722.58" angle="342.91" type="Truck" speed="6.16" pos="4.36" lane=":561528_0_0" slope="0.00"/>
        <vehicle id="3" x="1313.41" y="1103.69" angle="355.36" type="Car" speed="0.00" pos="1.10" lane="404737753#4_0" slope="0.00"/>
    </timestep>
    <timestep time="10.00">
        <vehicle id="0" x="1198.87" y="840.19" angle="249.10" type="Truck" speed="0.00" pos="25.60" lane="-503322109_0" slope="0.00"/>
        <vehicle id="1" x="894.13" y="727.87" angle="44.98" type="Truck" speed="6.43" pos="1.50" lane="559388067#2_0" slope="0.00"/>
        <vehicle id="3" x="1313.27" y="1105.37" angle="355.36" type="Car" speed="1.69" pos="2.79" lane="404737753#4_0" slope="0.00"/>
    </timestep>
    <timestep time="11.00">
        <vehicle id="0" x="1198.87" y="840.19" angle="249.10" type="Truck" speed="0.00" pos="25.60" lane="-503322109_0" slope="0.00"/>
        <vehicle id="1" x="899.93" y="732.77" angle="49.85" type="Truck" speed="7.61" pos="9.11" lane="559388067#2_0" slope="0.00"/>
        <vehicle id="3" x="1312.90" y="1109.97" angle="355.36" type="Car" speed="4.62" pos="7.40" lane="404737753#4_0" slope="0.00"/>
    </timestep>
    <timestep time="12.00">
        <vehicle id="0" x="1198.87" y="840.19" angle="249.10" type="Truck" speed="0.00" pos="25.60" lane="-503322109_0" slope="0.00"/>
        <vehicle id="1" x="906.53" y="738.34" angle="49.85" type="Truck" speed="8.65" pos="17.76" lane="559388067#2_0" slope="0.00"/>
        <vehicle id="3" x="1313.19" y="1116.43" angle="29.00" type="Car" speed="6.67" pos="14.07" lane="404737753#4_0" slope="0.00"/>
        <vehicle id="4" x="1279.55" y="1321.49" angle="129.79" type="Car" speed="0.00" pos="1.10" lane="5069788_0" slope="0.00"/>
    </timestep>
    <timestep time="13.00">
        <vehicle id="0" x="1198.87" y="840.19" angle="249.10" type="Truck" speed="0.00" pos="25.60" lane="-503322109_0" slope="0.00"/>
        <vehicle id="1" x="911.69" y="746.88" angle="49.85" type="Truck" speed="9.39" pos="27.15" lane="559388067#2_1" slope="0.00"/>
        <vehicle id="3" x="1317.23" y="1123.72" angle="29.00" type="Car" speed="8.34" pos="22.41" lane="404737753#4_0" slope="0.00"/>
        <vehicle id="4" x="1281.39" y="1319.95" angle="129.79" type="Car" speed="2.41" pos="3.51" lane="5069788_0" slope="0.00"/>
    </timestep>
    <timestep time="14.00">
        <vehicle id="0" x="1198.87" y="840.19" angle="249.10" type="Truck" speed="0.00" pos="25.60" lane="-503322109_0" slope="0.00"/>
        <vehicle id="1" x="919.66" y="753.60" angle="49.85" type="Truck" speed="10.41" pos="37.56" lane="559388067#2_1" slope="0.00"/>
        <vehicle id="3" x="1322.70" y="1133.59" angle="29.00" type="Car" speed="11.29" pos="33.69" lane="404737753#4_0" slope="0.00"/>
        <vehicle id="4" x="1285.22" y="1316.81" angle="129.23" type="Car" speed="4.95" pos="8.46" lane="5069788_0" slope="0.00"/>
    </timestep>
    <timestep time="15.00">
        <vehicle id="0" x="1198.87" y="840.19" angle="249.10" type="Truck" speed="0.00" pos="25.60" lane="-503322109_0" slope="0.00"/>
        <vehicle id="1" x="928.29" y="760.88" angle="49.85" type="Truck" speed="11.27" pos="48.83" lane="559388067#2_1" slope="0.00"/>
        <vehicle id="3" x="1328.93" y="1144.83" angle="29.00" type="Car" speed="12.85" pos="46.55" lane="404737753#4_0" slope="0.00"/>
        <vehicle id="4" x="1291.35" y="1311.81" angle="129.23" type="Car" speed="7.91" pos="16.37" lane="5069788_0" slope="0.00"/>
        <vehicle id="5" x="1886.32" y="785.19" angle="82.30" type="Sport" speed="0.00" pos="1.10" lane="5735634#0_0" slope="0.00"/>
    </timestep>
    <timestep time="16.00">
        <vehicle id="0" x="1198.87" y="840.19" angle="249.10" type="Truck" speed="0.00" pos="25.60" lane="-503322109_0" slope="0.00"/>
        <vehicle id="1" x="937.63" y="768.75" angle="49.85" type="Truck" speed="12.19" pos="61.03" lane="559388067#2_1" slope="0.00"/>
        <vehicle id="3" x="1336.52" y="1158.53" angle="29.00" type="Car" speed="15.66" pos="62.20" lane="404737753#4_0" slope="0.00"/>
        <vehicle id="4" x="1299.65" y="1305.03" angle="129.23" type="Car" speed="10.72" pos="27.09" lane="5069788_0" slope="0.00"/>
        <vehicle id="5" x="1888.68" y="785.44" angle="85.64" type="Sport" speed="2.38" pos="3.48" lane="5735634#0_0" slope="0.00"/>
    </timestep>
    <timestep time="17.00">
        <vehicle id="0" x="1198.87" y="840.19" angle="249.10" type="Truck" speed="0.00" pos="25.60" lane="-503322109_0" slope="0.00"/>
        <vehicle id="1" x="947.08" y="776.73" angle="49.85" type="Truck" speed="12.36" pos="73.38" lane="559388067#2_1" slope="0.00"/>
        <vehicle id="3" x="1345.81" y="1174.24" angle="47.36" type="Car" speed="18.32" pos="8.69" lane="404737753#5_0" slope="0.00"/>
        <vehicle id="4" x="1310.08" y="1296.51" angle="129.23" type="Car" speed="13.47" pos="40.55" lane="5069788_0" slope="0.00"/>
        <vehicle id="5" x="1893.21" y="785.30" angle="91.80" type="Sport" speed="4.53" pos="8.01" lane="5735634#0_0" slope="0.00"/>
    </timestep>
    <timestep time="18.00">
        <vehicle id="0" x="1198.87" y="840.19" angle="249.10" type="Truck" speed="0.00" pos="25.60" lane="-503322109_0" slope="0.00"/>
        <vehicle id="1" x="956.93" y="785.04" angle="49.85" type="Truck" speed="12.86" pos="86.25" lane="559388067#2_1" slope="0.00"/>
        <vehicle id="3" x="1359.73" y="1187.06" angle="47.36" type="Car" speed="18.93" pos="27.62" lane="404737753#5_0" slope="0.00"/>
        <vehicle id="4" x="1319.27" y="1289.01" angle="129.23" type="Car" speed="11.87" pos="52.42" lane="5069788_0" slope="0.00"/>
        <vehicle id="5" x="1899.73" y="785.09" angle="91.80" type="Sport" speed="6.52" pos="14.53" lane="5735634#0_0" slope="0.00"/>
        <vehicle id="6" x="1799.91" y="779.31" angle="291.70" type="Truck" speed="0.00" pos="3.10" lane="39460498#0_0" slope="0.00"/>
    </timestep>
    <timestep time="19.00">
        <vehicle id="0" x="1198.87" y="840.19" angle="249.10" type="Truck" speed="0.00" pos="25.60" lane="-503322109_0" slope="0.00"/>
        <vehicle id="1" x="966.59" y="793.18" angle="49.85" type="Truck" speed="12.62" pos="98.86" lane="559388067#2_1" slope="0.00"/>
        <vehicle id="3" x="1370.63" y="1197.09" angle="47.36" type="Car" speed="14.81" pos="42.43" lane="404737753#5_0" slope="0.00"/>
        <vehicle id="4" x="1324.59" y="1284.67" angle="129.23" type="Car" speed="6.87" pos="59.28" lane="5069788_0" slope="0.00"/>
        <vehicle id="5" x="1907.79" y="784.57" angle="94.32" type="Sport" speed="8.08" pos="22.62" lane="5735634#0_0" slope="0.00"/>
        <vehicle id="6" x="1798.93" y="779.70" angle="291.70" type="Truck" speed="1.06" pos="4.16" lane="39460498#0_0" slope="0.00"/>
    </timestep>
    <timestep time="20.00">
        <vehicle id="0" x="1198.87" y="840.19" angle="249.10" type="Truck" speed="0.00" pos="25.60" lane="-503322109_0" slope="0.00"/>
        <vehicle id="1" x="976.79" y="800.64" angle="55.32" type="Truck" speed="12.63" pos="111.49" lane="559388067#2_1" slope="0.00"/>
        <vehicle id="3" x="1377.85" y="1203.73" angle="47.39" type="Car" speed="9.81" pos="4.67" lane=":6503565067_0_0" slope="0.00"/>
        <vehicle id="4" x="1331.76" y="1280.37" angle="110.52" type="Car" speed="8.43" pos="6.07" lane=":31092489_5_0" slope="0.00"/>
        <vehicle id="5" x="1918.55" y="783.57" angle="96.88" type="Sport" speed="10.81" pos="33.42" lane="5735634#0_0" slope="0.00"/>
        <vehicle id="6" x="1796.75" y="780.57" angle="291.70" type="Truck" speed="2.35" pos="6.50" lane="39460498#0_0" slope="0.00"/>
    </timestep>
    <timestep time="21.00">
        <vehicle id="0" x="1198.87" y="840.19" angle="249.10" type="Truck" speed="0.00" pos="25.60" lane="-503322109_0" slope="0.00"/>
        <vehicle id="1" x="988.74" y="806.63" angle="67.19" type="Truck" speed="13.01" pos="2.41" lane=":cluster_1848627876_2543810443_2543810490_2543810499_2543810739_5_1" slope="0.00"/>
        <vehicle id="3" x="1381.87" y="1207.44" angle="47.30" type="Car" speed="5.47" pos="5.06" lane="404737753#6_0" slope="0.00"/>
        <vehicle id="4" x="1342.93" y="1278.67" angle="95.19" type="Car" speed="11.33" pos="3.34" lane="5069764#0_0" slope="0.00"/>
        <vehicle id="5" x="1931.11" y="780.39" angle="106.44" type="Sport" speed="12.99" pos="46.41" lane="5735634#0_0" slope="0.00"/>
        <vehicle id="6" x="1793.86" y="781.71" angle="291.60" type="Truck" speed="3.10" pos="9.60" lane="39460498#0_0" slope="0.00"/>
        <vehicle id="7" x="1168.27" y="1173.45" angle="116.57" type="Sport" speed="0.00" pos="1.10" lane="5069789#0_0" slope="0.00"/>
    </timestep>
    <timestep time="22.00">
        <vehicle id="0" x="1198.87" y="840.19" angle="249.10" type="Truck" speed="0.00" pos="25.60" lane="-503322109_0" slope="0.00"/>
        <vehicle id="1" x="1000.58" y="810.45" angle="76.13" type="Truck" speed="12.34" pos="14.74" lane=":cluster_1848627876_2543810443_2543810490_2543810499_2543810739_5_1" slope="0.00"/>
        <vehicle id="3" x="1388.46" y="1212.14" angle="66.16" type="Car" speed="8.16" pos="7.05" lane=":2547038157_0_0" slope="0.00"/>
        <vehicle id="4" x="1356.34" y="1279.65" angle="79.73" type="Car" speed="13.48" pos="16.82" lane="5069764#0_0" slope="0.00"/>
        <vehicle id="5" x="1944.35" y="776.48" angle="106.44" type="Sport" speed="13.80" pos="60.21" lane="5735634#0_0" slope="0.00"/>
        <vehicle id="6" x="1789.67" y="783.16" angle="289.05" type="Truck" speed="4.44" pos="14.04" lane="39460498#0_0" slope="0.00"/>
        <vehicle id="7" x="1170.71" y="1172.22" angle="116.71" type="Sport" speed="2.73" pos="1.51" lane=":639588436_0_0" slope="0.00"/>
    </timestep>
    <timestep time="23.00">
        <vehicle id="0" x="1198.87" y="840.19" angle="249.10" type="Truck" speed="0.00" pos="25.60" lane="-503322109_0" slope="0.00"/>
        <vehicle id="1" x="1013.42" y="813.12" angle="78.38" type="Truck" speed="13.00" pos="1.94" lane="4928480#1_1" slope="0.00"/>
        <vehicle id="3" x="1398.36" y="1216.47" angle="66.39" type="Car" speed="10.84" pos="9.63" lane="692664116#0_0" slope="0.00"/>
        <vehicle id="4" x="1370.69" y="1282.37" angle="78.98" type="Car" speed="14.60" pos="9.25" lane=":676728269_3_0" slope="0.00"/>
        <vehicle id="5" x="1957.04" y="772.74" angle="106.44" type="Sport" speed="13.23" pos="73.44" lane="5735634#0_0" slope="0.00"/>
        <vehicle id="6" x="1784.38" y="784.98" angle="289.03" type="Truck" speed="5.59" pos="0.44" lane=":1842343214_0_0" slope="0.00"/>
        <vehicle id="7" x="1174.91" y="1170.11" angle="116.71" type="Sport" speed="4.71" pos="6.22" lane=":639588436_0_0" slope="0.00"/>
    </timestep>
    <timestep time="24.00">
        <vehicle id="0" x="1198.87" y="840.19" angle="249.10" type="Truck" speed="0.00" pos="25.60" lane="-503322109_0" slope="0.00"/>
        <vehicle id="1" x="1025.74" y="815.93" angle="76.63" type="Truck" speed="12.60" pos="0.23" lane=":560098_0_1" slope="0.00"/>
        <vehicle id="3" x="1410.54" y="1221.38" angle="70.86" type="Car" speed="13.20" pos="22.83" lane="692664116#0_0" slope="0.00"/>
        <vehicle id="4" x="1384.80" y="1285.29" angle="78.30" type="Car" speed="14.41" pos="14.31" lane="5069764#1_0" slope="0.00"/>
        <vehicle id="5" x="1966.76" y="769.52" angle="109.95" type="Sport" speed="10.25" pos="83.70" lane="5735634#0_0" slope="0.00"/>
        <vehicle id="6" x="1778.15" y="786.85" angle="284.76" type="Truck" speed="6.51" pos="6.95" lane=":1842343214_0_0" slope="0.00"/>
        <vehicle id="7" x="1180.69" y="1167.20" angle="116.69" type="Sport" speed="6.47" pos="5.76" lane="5069789#1_0" slope="0.00"/>
        <vehicle id="8" x="2064.62" y="1405.50" angle="357.44" type="Car" speed="0.00" pos="1.10" lane="266334238_0" slope="0.00"/>
    </timestep>
    <timestep time="25.00">
        <vehicle id="0" x="1198.87" y="840.19" angle="249.10" type="Truck" speed="0.00" pos="25.60" lane="-503322109_0" slope="0.00"/>
        <vehicle id="1" x="1036.57" y="820.54" angle="64.64" type="Truck" speed="12.35" pos="6.67" lane="4928480#2_1" slope="0.00"/>
        <vehicle id="3" x="1423.73" y="1225.96" angle="70.84" type="Car" speed="14.00" pos="4.79" lane=":2547038174_0_0" slope="0.00"/>
        <vehicle id="4" x="1398.17" y="1288.06" angle="78.30" type="Car" speed="13.65" pos="27.96" lane="5069764#1_0" slope="0.00"/>
        <vehicle id="5" x="1973.00" y="767.25" angle="109.95" type="Sport" speed="6.64" pos="90.33" lane="5735634#0_0" slope="0.00"/>
        <vehicle id="6" x="1771.96" y="788.06" angle="280.15" type="Truck" speed="6.31" pos="3.61" lane="39460498#1_0" slope="0.00"/>
        <vehicle id="7" x="1188.31" y="1163.37" angle="116.69" type="Sport" speed="8.53" pos="14.30" lane="5069789#1_0" slope="0.00"/>
        <vehicle id="8" x="2064.52" y="1407.87" angle="357.44" type="Car" speed="2.45" pos="3.55" lane="266334238_0" slope="0.00"/>
    </timestep>
    <timestep time="26.00">
        <vehicle id="0" x="1198.87" y="840.19" angle="249.10" type="Truck" speed="0.00" pos="25.60" lane="-503322109_0" slope="0.00"/>
        <vehicle id="1" x="1047.70" y="826.85" angle="60.38" type="Truck" speed="12.74" pos="12.45" lane=":2543810681_0_1" slope="0.00"/>
        <vehicle id="3" x="1433.24" y="1229.26" angle="70.88" type="Car" speed="10.01" pos="9.80" lane="692664116#1_0" slope="0.00"/>
        <vehicle id="4" x="1411.24" y="1290.76" angle="78.30" type="Car" speed="13.34" pos="41.30" lane="5069764#1_0" slope="0.00"/>
        <vehicle id="5" x="1975.19" y="768.26" angle="41.50" type="Sport" speed="2.60" pos="0.10" lane=":2683678048_11_0" slope="0.00"/>
        <vehicle id="6" x="1765.30" y="788.87" angle="276.94" type="Truck" speed="6.72" pos="10.32" lane="39460498#1_0" slope="0.00"/>
        <vehicle id="7" x="1197.85" y="1158.57" angle="116.69" type="Sport" speed="10.67" pos="24.97" lane="5069789#1_0" slope="0.00"/>
        <vehicle id="8" x="2064.33" y="1412.12" angle="357.44" type="Car" speed="4.39" pos="7.94" lane="266334238_0" slope="0.00"/>
    </timestep>
    <timestep time="27.00">
        <vehicle id="0" x="1198.87" y="840.19" angle="249.10" type="Truck" speed="0.00" pos="25.60" lane="-503322109_0" slope="0.00"/>
        <vehicle id="1" x="1058.99" y="832.81" angle="63.39" type="Truck" speed="12.75" pos="7.53" lane="4928480#3_1" slope="0.00"/>
        <vehicle id="3" x="1439.17" y="1227.82" angle="145.73" type="Car" speed="6.70" pos="5.96" lane=":cluster_1851827890_2547038165_2547038186_2547038204_2547038213_6504862833_9_0" slope="0.00"/>
        <vehicle id="4" x="1420.40" y="1292.66" angle="78.30" type="Car" speed="9.36" pos="50.66" lane="5069764#1_0" slope="0.00"/>
        <vehicle id="5" x="1973.22" y="770.58" angle="289.92" type="Sport" speed="3.34" pos="1.10" lane="-5735634#0_0" slope="0.00"/>
        <vehicle id="6" x="1758.94" y="789.39" angle="274.64" type="Truck" speed="6.38" pos="16.70" lane="39460498#1_0" slope="0.00"/>
        <vehicle id="7" x="1209.44" y="1152.75" angle="116.69" type="Sport" speed="12.97" pos="37.95" lane="5069789#1_0" slope="0.00"/>
        <vehicle id="8" x="2064.05" y="1418.26" angle="357.44" type="Car" speed="6.34" pos="14.28" lane="266334238_0" slope="0.00"/>
        <vehicle id="9" x="1912.57" y="1326.31" angle="151.06" type="Truck" speed="0.00" pos="3.10" lane="-241952842#4_0" slope="0.00"/>
    </timestep>
    <timestep time="28.00">
        <vehicle id="0" x="1198.87" y="840.19" angle="249.10" type="Truck" speed="0.00" pos="25.60" lane="-503322109_0" slope="0.00"/>
        <vehicle id="1" x="1070.19" y="838.42" angle="63.39" type="Truck" speed="12.53" pos="20.06" lane="4928480#3_1" slope="0.00"/>
        <vehicle id="3" x="1441.64" y="1221.89" angle="164.26" type="Car" speed="6.49" pos="0.47" lane="-692664113_0" slope="0.00"/>
        <vehicle id="4" x="1424.83" y="1293.58" angle="78.30" type="Car" speed="4.53" pos="55.19" lane="5069764#1_0" slope="0.00"/>
        <vehicle id="5" x="1967.32" y="772.72" angle="289.92" type="Sport" speed="6.27" pos="7.37" lane="-5735634#0_0" slope="0.00"/>
        <vehicle id="6" x="1752.29" y="789.56" angle="269.61" type="Truck" speed="6.66" pos="23.36" lane="39460498#1_0" slope="0.00"/>
        <vehicle id="7" x="1222.23" y="1146.32" angle="116.69" type="Sport" speed="14.31" pos="52.26" lane="5069789#1_0" slope="0.00"/>
        <vehicle id="8" x="2063.66" y="1427.12" angle="357.44" type="Car" speed="9.15" pos="23.43" lane="266334238_0" slope="0.00"/>
        <vehicle id="9" x="1913.12" y="1325.32" angle="151.06" type="Truck" speed="1.13" pos="4.23" lane="-241952842#4_0" slope="0.00"/>
    </timestep>
    <timestep time="29.00">
        <vehicle id="0" x="1198.87" y="840.19" angle="249.10" type="Truck" speed="0.00" pos="25.60" lane="-503322109_0" slope="0.00"/>
        <vehicle id="1" x="1081.42" y="844.05" angle="63.39" type="Truck" speed="12.56" pos="32.62" lane="4928480#3_1" slope="0.00"/>
        <vehicle id="3" x="1443.58" y="1213.50" angle="167.00" type="Car" speed="8.61" pos="9.08" lane="-692664113_0" slope="0.00"/>
        <vehicle id="4" x="1430.35" y="1292.26" angle="125.86" type="Car" speed="5.79" pos="3.52" lane=":30078626_4_0" slope="0.00"/>
        <vehicle id="5" x="1959.47" y="775.36" angle="286.45" type="Sport" speed="8.28" pos="15.65" lane="-5735634#0_0" slope="0.00"/>
        <vehicle id="6" x="1745.61" y="789.33" angle="266.15" type="Truck" speed="6.68" pos="30.04" lane="39460498#1_0" slope="0.00"/>
        <vehicle id="7" x="1235.00" y="1139.90" angle="116.69" type="Sport" speed="14.30" pos="66.56" lane="5069789#1_0" slope="0.00"/>
        <vehicle id="8" x="2063.19" y="1437.47" angle="357.44" type="Car" speed="10.68" pos="34.11" lane="266334238_0" slope="0.00"/>
        <vehicle id="9" x="1914.19" y="1323.37" angle="151.06" type="Truck" speed="2.22" pos="6.45" lane="-241952842#4_0" slope="0.00"/>
    </timestep>
    <timestep time="30.00">
        <vehicle id="0" x="1198.87" y="840.19" angle="249.10" type="Truck" speed="0.00" pos="25.60" lane="-503322109_0" slope="0.00"/>
        <vehicle id="1" x="1092.90" y="849.80" angle="63.39" type="Truck" speed="12.84" pos="45.46" lane="4928480#3_1" slope="0.00"/>
        <vehicle id="10" x="2289.03" y="1128.56" angle="184.62" type="Sport" speed="0.00" pos="1.10" lane="5069771#1_0" slope="0.00"/>
        <vehicle id="3" x="1445.66" y="1203.07" angle="174.59" type="Car" speed="10.65" pos="6.56" lane=":676728294_4_0" slope="0.00"/>
        <vehicle id="4" x="1432.28" y="1286.97" angle="177.36" type="Car" speed="5.91" pos="0.36" lane="5069579#3_0" slope="0.00"/>
        <vehicle id="5" x="1948.80" y="778.51" angle="286.45" type="Sport" speed="11.13" pos="26.78" lane="-5735634#0_0" slope="0.00"/>
        <vehicle id="6" x="1739.12" y="788.73" angle="264.72" type="Truck" speed="6.52" pos="36.56" lane="39460498#1_0" slope="0.00"/>
        <vehicle id="7" x="1247.20" y="1133.80" angle="116.50" type="Sport" speed="13.64" pos="6.52" lane="5069789#2_0" slope="0.00"/>
        <vehicle id="8" x="2062.68" y="1448.84" angle="357.44" type="Car" speed="11.74" pos="45.85" lane="266334238_0" slope="0.00"/>
        <vehicle id="9" x="1915.66" y="1320.73" angle="151.06" type="Truck" speed="3.03" pos="9.48" lane="-241952842#4_0" slope="0.00"/>
    </timestep>
    <timestep time="31.00">
        <vehicle id="0" x="1198.87" y="840.19" angle="249.10" type="Truck" speed="0.00" pos="25.60" lane="-503322109_0" slope="0.00"/>
        <vehicle id="1" x="1104.10" y="855.05" angle="65.84" type="Truck" speed="12.37" pos="57.83" lane="4928480#3_1" slope="0.00"/>
        <vehicle id="10" x="2288.89" y="1126.77" angle="184.62" type="Sport" speed="1.80" pos="2.90" lane="5069771#1_0" slope="0.00"/>
        <vehicle id="3" x="1446.45" y="1189.70" angle="176.69" type="Car" speed="13.40" pos="11.30" lane="-191548220#1_0" slope="0.00"/>
        <vehicle id="4" x="1432.52" y="1278.59" angle="176.46" type="Car" speed="8.40" pos="8.75" lane="5069579#3_0" slope="0.00"/>
        <vehicle id="5" x="1936.53" y="782.13" angle="286.45" type="Sport" speed="12.79" pos="39.57" lane="-5735634#0_0" slope="0.00"/>
        <vehicle id="6" x="1733.24" y="789.57" angle="293.19" type="Truck" speed="6.24" pos="1.98" lane=":cluster_1842343228_1842343233_43582625_5_0" slope="0.00"/>
        <vehicle id="7" x="1258.99" y="1127.92" angle="116.50" type="Sport" speed="13.17" pos="19.70" lane="5069789#2_0" slope="0.00"/>
        <vehicle id="8" x="2062.19" y="1459.96" angle="357.44" type="Car" speed="11.48" pos="57.33" lane="266334238_0" slope="0.00"/>
        <vehicle id="9" x="1917.63" y="1317.15" angle="151.06" type="Truck" speed="4.09" pos="13.56" lane="-241952842#4_0" slope="0.00"/>
    </timestep>
    <timestep time="32.00">
        <vehicle id="0" x="1198.87" y="840.19" angle="249.10" type="Truck" speed="0.00" pos="25.60" lane="-503322109_0" slope="0.00"/>
        <vehicle id="1" x="1115.54" y="860.55" angle="62.91" type="Truck" speed="12.70" pos="70.54" lane="4928480#3_1" slope="0.00"/>
        <vehicle id="10" x="2288.61" y="1123.34" angle="184.62" type="Sport" speed="3.44" pos="6.34" lane="5069771#1_0" slope="0.00"/>
        <vehicle id="3" x="1447.19" y="1177.26" angle="176.10" type="Car" speed="12.46" pos="23.76" lane="-191548220#1_0" slope="0.00"/>
        <vehicle id="4" x="1434.47" y="1268.12" angle="167.88" type="Car" speed="10.67" pos="19.42" lane="5069579#3_0" slope="0.00"/>
        <vehicle id="5" x="1923.75" y="785.90" angle="286.45" type="Sport" speed="13.32" pos="52.90" lane="-5735634#0_0" slope="0.00"/>
        <vehicle id="6" x="1728.79" y="795.27" angle="325.80" type="Truck" speed="7.35" pos="9.33" lane=":cluster_1842343228_1842343233_43582625_5_0" slope="0.00"/>
        <vehicle id="7" x="1270.08" y="1122.39" angle="116.50" type="Sport" speed="12.39" pos="32.09" lane="5069789#2_0" slope="0.00"/>
        <vehicle id="8" x="2061.68" y="1471.39" angle="357.44" type="Car" speed="11.80" pos="69.13" lane="266334238_0" slope="0.00"/>
        <vehicle id="9" x="1919.98" y="1312.91" angle="151.06" type="Truck" speed="4.84" pos="18.41" lane="-241952842#4_0" slope="0.00"/>
    </timestep>
    <timestep time="33.00">
        <vehicle id="0" x="1198.87" y="840.19" angle="249.10" type="Truck" speed="0.00" pos="25.60" lane="-503322109_0" slope="0.00"/>
        <vehicle id="1" x="1126.43" y="866.50" angle="58.50" type="Truck" speed="12.44" pos="11.85" lane=":1646282534_1_1" slope="0.00"/>
        <vehicle id="10" x="2288.15" y="1117.61" angle="184.62" type="Sport" speed="5.75" pos="12.09" lane="5069771#1_0" slope="0.00"/>
        <vehicle id="11" x="1794.81" y="1277.62" angle="243.78" type="Truck" speed="0.00" pos="3.10" lane="-247843212#4_0" slope="0.00"/>
        <vehicle id="3" x="1447.70" y="1169.82" angle="176.10" type="Car" speed="7.46" pos="31.22" lane="-191548220#1_0" slope="0.00"/>
        <vehicle id="4" x="1436.31" y="1259.54" angle="167.88" type="Car" speed="8.78" pos="28.20" lane="5069579#3_0" slope="0.00"/>
        <vehicle id="5" x="1911.06" y="787.53" angle="274.32" type="Sport" speed="12.82" pos="65.71" lane="-5735634#0_0" slope="0.00"/>
        <vehicle id="6" x="1721.88" y="798.27" angle="273.92" type="Truck" speed="8.16" pos="0.09" lane="389399200_1" slope="0.00"/>
        <vehicle id="7" x="1276.69" y="1119.10" angle="116.50" type="Sport" speed="7.39" pos="39.48" lane="5069789#2_0" slope="0.00"/>
        <vehicle id="8" x="2061.20" y="1482.12" angle="357.44" type="Car" speed="11.08" pos="80.20" lane="266334238_0" slope="0.00"/>
        <vehicle id="9" x="1922.84" y="1307.74" angle="151.06" type="Truck" speed="5.90" pos="24.31" lane="-241952842#4_0" slope="0.00"/>
    </timestep>
    <timestep time="34.00">
        <vehicle id="0" x="1198.87" y="840.19" angle="249.10" type="Truck" speed="0.00" pos="25.60" lane="-503322109_0" slope="0.00"/>
        <vehicle id="1" x="1136.78" y="873.66" angle="51.36" type="Truck" speed="12.93" pos="7.60" lane="4928480#4_1" slope="0.00"/>
        <vehicle id="10" x="2287.46" y="1109.13" angle="184.62" type="Sport" speed="8.51" pos="20.60" lane="5069771#1_0" slope="0.00"/>
        <vehicle id="11" x="1793.63" y="1277.05" angle="243.91" type="Truck" speed="1.31" pos="4.41" lane="-247843212#4_0" slope="0.00"/>
        <vehicle id="3" x="1447.87" y="1167.37" angle="176.10" type="Car" speed="2.46" pos="33.67" lane="-191548220#1_0" slope="0.00"/>
        <vehicle id="4" x="1437.23" y="1255.27" angle="167.88" type="Car" speed="4.37" pos="32.57" lane="5069579#3_0" slope="0.00"/>
        <vehicle id="5" x="1897.86" y="788.35" angle="271.80" type="Sport" speed="13.23" pos="78.94" lane="-5735634#0_0" slope="0.00"/>
        <vehicle id="6" x="1713.02" y="795.24" angle="251.10" type="Truck" speed="9.41" pos="9.51" lane="389399200_1" slope="0.00"/>
        <vehicle id="7" x="1283.54" y="1115.28" angle="120.39" type="Sport" speed="7.84" pos="5.29" lane=":cluster_1788525406_2545840621_34216045_1_0" slope="0.00"/>
        <vehicle id="8" x="2060.69" y="1493.40" angle="357.44" type="Car" speed="11.64" pos="91.84" lane="266334238_0" slope="0.00"/>
        <vehicle id="9" x="1926.22" y="1301.62" angle="151.06" type="Truck" speed="6.99" pos="31.30" lane="-241952842#4_0" slope="0.00"/>
    </timestep>
    <timestep time="35.00">
        <vehicle id="0" x="1198.87" y="840.19" angle="249.10" type="Truck" speed="0.00" pos="25.60" lane="-503322109_0" slope="0.00"/>
        <vehicle id="1" x="1144.48" y="880.64" angle="47.52" type="Truck" speed="10.41" pos="9.78" lane=":cluster_2543810830_2635885559_2649887614_560101_742745569_13_0" slope="0.00"/>
        <vehicle id="10" x="2286.62" y="1098.68" angle="184.62" type="Sport" speed="10.49" pos="31.09" lane="5069771#1_0" slope="0.00"/>
        <vehicle id="11" x="1791.74" y="1276.12" angle="243.98" type="Truck" speed="2.11" pos="6.52" lane="-247843212#4_0" slope="0.00"/>
        <vehicle id="3" x="1447.90" y="1166.92" angle="176.10" type="Car" speed="0.45" pos="34.12" lane="-191548220#1_0" slope="0.00"/>
        <vehicle id="4" x="1437.43" y="1254.33" angle="167.88" type="Car" speed="0.96" pos="33.53" lane="5069579#3_0" slope="0.00"/>
        <vehicle id="5" x="1884.86" y="788.24" angle="263.02" type="Sport" speed="13.02" pos="91.96" lane="-5735634#0_0" slope="0.00"/>
        <vehicle id="6" x="1705.55" y="792.72" angle="251.39" type="Truck" speed="7.93" pos="17.44" lane="389399200_1" slope="0.00"/>