<?xml version="1.0" encoding="UTF-8"?>

<!-- generated on 09/15/20 23:41:49 by Eclipse SUMO Version 1.2.0
<configuration xmlns:xsi="http://www.w3.org/2001/XMLSchema-instance" xsi:noNamespaceSchemaLocation="http://sumo.dlr.de/xsd/sumoConfiguration.xsd">

    <input>
        <net-file value="mapNetconvert.net.xml"/>
        <route-files value="models/random/routes.rou.xml"/>
    </input>

    <output>
        <fcd-output value="C:\Users\darkm\Documents\proyectos\Mogen\models\random\mapNetconvert.fcd"/>
    </output>

    <time>
        <end value="60"/>
    </time>

</configuration>
-->

<fcd-export xmlns:xsi="http://www.w3.org/2001/XMLSchema-instance" xsi:noNamespaceSchemaLocation="http://sumo.dlr.de/xsd/fcd_file.xsd">
    <timestep time="0.00">
        <vehicle id="0" x="609.17" y="169.94" angle="330.52" type="Truck" speed="0.00" pos="3.10" lane="-72369035#2_0" slope="0.00"/>
        <vehicle id="1" x="111.16" y="153.60" angle="318.12" type="Truck" speed="0.00" pos="3.10" lane="758932760#1_0" slope="0.00"/>
    </timestep>
    <timestep time="1.00">
        <vehicle id="0" x="608.65" y="170.75" angle="329.23" type="Truck" speed="0.96" pos="4.06" lane="-72369035#2_0" slope="0.00"/>
        <vehicle id="1" x="110.44" y="154.40" angle="318.12" type="Truck" speed="1.07" pos="4.17" lane="758932760#1_0" slope="0.00"/>
        <vehicle id="10" x="610.74" y="75.14" angle="51.39" type="Sport" speed="0.00" pos="1.10" lane="553918577#1_0" slope="0.00"/>
        <vehicle id="11" x="875.77" y="470.88" angle="241.30" type="Truck" speed="0.00" pos="3.10" lane="692792970#0_0" slope="0.00"/>
        <vehicle id="12" x="722.62" y="277.48" angle="21.52" type="Car" speed="0.00" pos="1.10" lane="-5069579#2_0" slope="0.00"/>
        <vehicle id="15" x="2.58" y="329.60" angle="151.84" type="Sport" speed="0.00" pos="1.10" lane="441319290_0" slope="0.00"/>
        <vehicle id="16" x="431.12" y="398.70" angle="8.95" type="Sport" speed="0.00" pos="1.10" lane="174274186#0_0" slope="0.00"/>
        <vehicle id="17" x="426.19" y="6.63" angle="268.14" type="Truck" speed="0.00" pos="3.10" lane="174600936#1_0" slope="0.00"/>
        <vehicle id="18" x="582.18" y="36.26" angle="102.66" type="Sport" speed="0.00" pos="1.10" lane="373852729_0" slope="0.00"/>
        <vehicle id="22" x="411.42" y="32.89" angle="12.93" type="Sport" speed="0.00" pos="1.10" lane="247499957#1_0" slope="0.00"/>
        <vehicle id="23" x="539.22" y="282.60" angle="38.57" type="Car" speed="0.00" pos="1.10" lane="344453961_0" slope="0.00"/>
        <vehicle id="24" x="138.92" y="150.42" angle="252.36" type="Truck" speed="0.00" pos="3.10" lane="489224054_0" slope="0.00"/>
        <vehicle id="27" x="656.80" y="537.52" angle="276.27" type="Car" speed="0.00" pos="1.10" lane="22374974#0_0" slope="0.00"/>
        <vehicle id="29" x="691.72" y="64.14" angle="343.43" type="Sport" speed="0.00" pos="1.10" lane="5073085_0" slope="0.00"/>
        <vehicle id="3" x="383.21" y="23.58" angle="330.76" type="Car" speed="0.00" pos="1.10" lane="472503797_0" slope="0.00"/>
        <vehicle id="5" x="145.05" y="140.23" angle="229.49" type="Sport" speed="0.00" pos="1.10" lane="142685257#0_0" slope="0.00"/>
        <vehicle id="6" x="418.82" y="7.08" angle="280.37" type="Truck" speed="0.00" pos="3.10" lane="174600936#2_0" slope="0.00"/>
        <vehicle id="7" x="734.23" y="127.30" angle="174.01" type="Sport" speed="0.00" pos="1.10" lane="-5069792#1_0" slope="0.00"/>
        <vehicle id="9" x="653.80" y="194.87" angle="241.45" type="Truck" speed="0.00" pos="3.10" lane="5069790_0" slope="0.00"/>
    </timestep>
    <timestep time="2.00">
        <vehicle id="0" x="607.68" y="172.60" angle="330.92" type="Truck" speed="2.10" pos="6.16" lane="-72369035#2_0" slope="0.00"/>
        <vehicle id="1" x="109.21" y="155.77" angle="318.12" type="Truck" speed="1.85" pos="6.02" lane="758932760#1_0" slope="0.00"/>
        <vehicle id="10" x="612.72" y="76.72" angle="51.39" type="Sport" speed="2.54" pos="3.64" lane="553918577#1_0" slope="0.00"/>
        <vehicle id="11" x="874.58" y="470.23" angle="241.30" type="Truck" speed="1.36" pos="4.46" lane="692792970#0_0" slope="0.00"/>
        <vehicle id="12" x="723.68" y="280.08" angle="23.04" type="Car" speed="2.80" pos="3.90" lane="-5069579#2_0" slope="0.00"/>
        <vehicle id="15" x="3.97" y="327.01" angle="151.84" type="Sport" speed="2.94" pos="4.04" lane="441319290_0" slope="0.00"/>
        <vehicle id="16" x="431.34" y="400.23" angle="7.79" type="Sport" speed="1.55" pos="2.65" lane="174274186#0_0" slope="0.00"/>
        <vehicle id="17" x="425.81" y="6.62" angle="268.14" type="Truck" speed="0.38" pos="3.48" lane="174600936#1_0" slope="0.00"/>
        <vehicle id="18" x="584.16" y="36.09" angle="89.54" type="Sport" speed="1.99" pos="3.09" lane="373852729_0" slope="0.00"/>
        <vehicle id="2" x="112.50" y="152.11" angle="318.12" type="Sport" speed="0.00" pos="1.10" lane="758932760#1_0" slope="0.00"/>
        <vehicle id="22" x="412.08" y="35.80" angle="12.93" type="Sport" speed="2.98" pos="4.08" lane="247499957#1_0" slope="0.00"/>
        <vehicle id="23" x="540.31" y="283.97" angle="38.57" type="Car" speed="1.75" pos="2.85" lane="344453961_0" slope="0.00"/>
        <vehicle id="24" x="139.19" y="147.15" angle="252.36" type="Truck" speed="0.73" pos="3.83" lane="489224054_1" slope="0.00"/>
        <vehicle id="27" x="654.89" y="537.73" angle="276.27" type="Car" speed="1.92" pos="3.02" lane="22374974#0_0" slope="0.00"/>
        <vehicle id="29" x="691.26" y="65.69" angle="343.43" type="Sport" speed="1.62" pos="2.72" lane="5073085_0" slope="0.00"/>
        <vehicle id="3" x="381.75" y="26.20" angle="330.76" type="Car" speed="3.00" pos="4.10" lane="472503797_0" slope="0.00"/>
        <vehicle id="5" x="143.13" y="138.59" angle="229.49" type="Sport" speed="2.42" pos="3.52" lane="142685257#0_0" slope="0.00"/>
        <vehicle id="6" x="417.78" y="7.27" angle="280.37" type="Truck" speed="1.05" pos="4.15" lane="174600936#2_0" slope="0.00"/>
        <vehicle id="7" x="734.49" y="124.91" angle="174.01" type="Sport" speed="2.40" pos="3.50" lane="-5069792#1_0" slope="0.00"/>
        <vehicle id="9" x="652.97" y="194.42" angle="241.45" type="Truck" speed="0.94" pos="4.04" lane="5069790_0" slope="0.00"/>
    </timestep>
    <timestep time="3.00">
        <vehicle id="0" x="606.65" y="175.27" angle="338.73" type="Truck" speed="2.87" pos="9.03" lane="-72369035#2_0" slope="0.00"/>
        <vehicle id="1" x="107.26" y="157.95" angle="318.12" type="Truck" speed="2.93" pos="8.94" lane="758932760#1_0" slope="0.00"/>
        <vehicle id="10" x="616.52" y="79.76" angle="51.39" type="Sport" speed="4.86" pos="8.50" lane="553918577#1_0" slope="0.00"/>
        <vehicle id="11" x="872.62" y="469.16" angle="241.30" type="Truck" speed="2.24" pos="6.69" lane="692792970#0_0" slope="0.00"/>
        <vehicle id="12" x="725.65" y="284.41" angle="24.58" type="Car" speed="4.75" pos="8.66" lane="-5069579#2_0" slope="0.00"/>
        <vehicle id="15" x="6.56" y="322.17" angle="151.84" type="Sport" speed="5.49" pos="9.53" lane="441319290_0" slope="0.00"/>
        <vehicle id="16" x="430.91" y="404.13" angle="353.66" type="Sport" speed="3.92" pos="6.57" lane="174274186#0_0" slope="0.00"/>
        <vehicle id="17" x="425.40" y="6.60" angle="268.14" type="Truck" speed="0.41" pos="3.89" lane="174600936#1_0" slope="0.00"/>
        <vehicle id="18" x="587.89" y="36.12" angle="89.54" type="Sport" speed="3.73" pos="6.82" lane="373852729_0" slope="0.00"/>
        <vehicle id="2" x="112.42" y="152.20" angle="318.12" type="Sport" speed="0.12" pos="1.22" lane="758932760#1_0" slope="0.00"/>
        <vehicle id="21" x="582.18" y="36.26" angle="102.66" type="Car" speed="0.00" pos="1.10" lane="373852729_0" slope="0.00"/>
        <vehicle id="22" x="413.40" y="41.54" angle="12.90" type="Sport" speed="5.90" pos="9.98" lane="247499957#1_0" slope="0.00"/>
        <vehicle id="23" x="542.93" y="287.20" angle="40.65" type="Car" speed="4.26" pos="0.69" lane="31281046_0" slope="0.00"/>
        <vehicle id="24" x="137.29" y="146.54" angle="252.36" type="Truck" speed="2.00" pos="5.83" lane="489224054_1" slope="0.00"/>
        <vehicle id="27" x="650.02" y="538.26" angle="276.27" type="Car" speed="4.90" pos="7.92" lane="22374974#0_0" slope="0.00"/>
        <vehicle id="29" x="690.12" y="69.50" angle="343.43" type="Sport" speed="3.97" pos="6.69" lane="5073085_0" slope="0.00"/>
        <vehicle id="3" x="379.04" y="31.03" angle="330.76" type="Car" speed="5.53" pos="9.62" lane="472503797_0" slope="0.00"/>
        <vehicle id="5" x="139.79" y="135.59" angle="226.24" type="Sport" speed="4.28" pos="7.80" lane="142685257#0_0" slope="0.00"/>
        <vehicle id="6" x="415.43" y="7.70" angle="280.37" type="Truck" speed="2.39" pos="6.55" lane="174600936#2_0" slope="0.00"/>
        <vehicle id="7" x="735.05" y="119.56" angle="174.01" type="Sport" speed="5.38" pos="8.88" lane="-5069792#1_0" slope="0.00"/>
        <vehicle id="9" x="651.24" y="193.48" angle="241.45" type="Truck" speed="1.97" pos="6.01" lane="5069790_0" slope="0.00"/>
    </timestep>
    <timestep time="4.00">
        <vehicle id="0" x="606.57" y="179.29" angle="5.71" type="Truck" speed="4.10" pos="13.13" lane="-72369035#2_0" slope="0.00"/>
        <vehicle id="1" x="104.48" y="161.04" angle="318.12" type="Truck" speed="4.16" pos="13.10" lane="758932760#1_0" slope="0.00"/>
        <vehicle id="10" x="622.68" y="84.63" angle="52.43" type="Sport" speed="7.85" pos="16.36" lane="553918577#1_0" slope="0.00"/>
        <vehicle id="11" x="869.93" y="467.68" angle="241.30" type="Truck" speed="3.07" pos="9.76" lane="692792970#0_0" slope="0.00"/>
        <vehicle id="12" x="728.39" y="290.39" angle="24.58" type="Car" speed="6.59" pos="15.25" lane="-5069579#2_0" slope="0.00"/>
        <vehicle id="15" x="10.47" y="314.87" angle="151.84" type="Sport" speed="8.28" pos="17.81" lane="441319290_0" slope="0.00"/>
        <vehicle id="16" x="430.27" y="409.86" angle="353.66" type="Sport" speed="5.77" pos="12.34" lane="174274186#0_0" slope="0.00"/>
        <vehicle id="17" x="424.89" y="6.59" angle="268.14" type="Truck" speed="0.51" pos="4.40" lane="174600936#1_0" slope="0.00"/>
        <vehicle id="18" x="594.57" y="36.74" angle="80.71" type="Sport" speed="6.72" pos="13.54" lane="373852729_0" slope="0.00"/>
        <vehicle id="2" x="112.16" y="152.49" angle="318.12" type="Sport" speed="0.39" pos="1.61" lane="758932760#1_0" slope="0.00"/>
        <vehicle id="21" x="582.66" y="36.15" angle="102.66" type="Car" speed="0.49" pos="1.59" lane="373852729_0" slope="0.00"/>
        <vehicle id="22" x="415.01" y="48.58" angle="12.87" type="Sport" speed="7.22" pos="17.19" lane="247499957#1_0" slope="0.00"/>
        <vehicle id="23" x="547.08" y="291.93" angle="41.27" type="Car" speed="6.30" pos="6.99" lane="31281046_0" slope="0.00"/>
        <vehicle id="24" x="134.14" y="145.51" angle="251.74" type="Truck" speed="3.31" pos="0.75" lane=":cluster_1561456753_1561456754_1561456757_4814946292_641179_7088286966_1_0" slope="0.00"/>
        <vehicle id="27" x="642.33" y="539.11" angle="276.27" type="Car" speed="7.74" pos="15.65" lane="22374974#0_0" slope="0.00"/>
        <vehicle id="29" x="688.45" y="75.12" angle="343.43" type="Sport" speed="5.87" pos="12.56" lane="5073085_0" slope="0.00"/>
        <vehicle id="3" x="375.38" y="37.56" angle="330.76" type="Car" speed="7.47" pos="17.09" lane="472503797_0" slope="0.00"/>
        <vehicle id="5" x="135.28" y="129.96" angle="205.86" type="Sport" speed="6.99" pos="14.80" lane="142685257#0_0" slope="0.00"/>
        <vehicle id="6" x="412.34" y="8.26" angle="280.37" type="Truck" speed="3.14" pos="9.68" lane="174600936#2_0" slope="0.00"/>
        <vehicle id="7" x="735.77" y="112.65" angle="174.01" type="Sport" speed="6.95" pos="15.83" lane="-5069792#1_0" slope="0.00"/>
        <vehicle id="9" x="648.52" y="192.00" angle="241.45" type="Truck" speed="3.09" pos="9.11" lane="5069790_0" slope="0.00"/>
    </timestep>
    <timestep time="5.00">
        <vehicle id="0" x="607.40" y="184.09" angle="11.46" type="Truck" speed="4.88" pos="18.01" lane="-72369035#2_0" slope="0.00"/>
        <vehicle id="1" x="100.93" y="165.01" angle="318.12" type="Truck" speed="5.33" pos="18.43" lane="758932760#1_0" slope="0.00"/>
        <vehicle id="10" x="630.89" y="90.95" angle="52.43" type="Sport" speed="10.36" pos="26.72" lane="553918577#1_0" slope="0.00"/>
        <vehicle id="11" x="866.04" y="465.56" angle="241.30" type="Truck" speed="4.43" pos="14.19" lane="692792970#0_0" slope="0.00"/>
        <vehicle id="12" x="729.89" y="299.64" angle="8.01" type="Car" speed="9.39" pos="24.63" lane="-5069579#2_0" slope="0.00"/>
        <vehicle id="15" x="15.55" y="305.38" angle="151.84" type="Sport" speed="10.76" pos="28.57" lane="441319290_0" slope="0.00"/>
        <vehicle id="16" x="429.40" y="417.72" angle="353.66" type="Sport" speed="7.91" pos="20.25" lane="174274186#0_0" slope="0.00"/>
        <vehicle id="17" x="423.73" y="6.55" angle="268.14" type="Truck" speed="1.16" pos="5.56" lane="174600936#1_0" slope="0.00"/>
        <vehicle id="18" x="602.04" y="39.24" angle="67.09" type="Sport" speed="7.90" pos="21.44" lane="373852729_0" slope="0.00"/>
        <vehicle id="2" x="111.52" y="153.19" angle="318.12" type="Sport" speed="0.95" pos="2.56" lane="758932760#1_0" slope="0.00"/>
        <vehicle id="21" x="584.20" y="36.09" angle="89.54" type="Car" speed="1.55" pos="3.14" lane="373852729_0" slope="0.00"/>
        <vehicle id="22" x="416.63" y="55.69" angle="12.87" type="Sport" speed="7.29" pos="24.48" lane="247499957#1_0" slope="0.00"/>
        <vehicle id="23" x="553.12" y="298.82" angle="41.27" type="Car" speed="9.16" pos="16.15" lane="31281046_0" slope="0.00"/>
        <vehicle id="24" x="130.21" y="144.07" angle="249.87" type="Truck" speed="4.19" pos="4.94" lane=":cluster_1561456753_1561456754_1561456757_4814946292_641179_7088286966_1_0" slope="0.00"/>
        <vehicle id="27" x="633.04" y="540.13" angle="276.27" type="Car" speed="9.35" pos="25.00" lane="22374974#0_0" slope="0.00"/>
        <vehicle id="29" x="686.18" y="82.75" angle="343.43" type="Sport" speed="7.96" pos="20.52" lane="5073085_0" slope="0.00"/>
        <vehicle id="3" x="370.74" y="45.85" angle="330.76" type="Car" speed="9.48" pos="26.58" lane="472503797_0" slope="0.00"/>
        <vehicle id="5" x="132.27" y="120.71" angle="189.55" type="Sport" speed="9.60" pos="5.23" lane=":cluster_1561456749_1561456750_0_0" slope="0.00"/>
        <vehicle id="6" x="408.01" y="9.14" angle="281.92" type="Truck" speed="4.42" pos="1.21" lane=":cluster_1851644000_1852665910_1852665932_798826569_0_0" slope="0.00"/>
        <vehicle id="7" x="736.63" y="104.44" angle="174.01" type="Sport" speed="8.25" pos="24.07" lane="-5069792#1_0" slope="0.00"/>
        <vehicle id="9" x="645.20" y="189.88" angle="236.27" type="Truck" speed="3.95" pos="13.05" lane="5069790_0" slope="0.00"/>
    </timestep>
    <timestep time="6.00">
        <vehicle id="0" x="608.59" y="189.94" angle="11.46" type="Truck" speed="5.97" pos="23.98" lane="-72369035#2_0" slope="0.00"/>
        <vehicle id="1" x="97.80" y="170.21" angle="329.78" type="Truck" speed="6.08" pos="5.49" lane="-49587760_0" slope="0.00"/>
        <vehicle id="10" x="640.61" y="98.43" angle="52.43" type="Sport" speed="12.26" pos="38.98" lane="553918577#1_0" slope="0.00"/>
        <vehicle id="11" x="861.39" y="463.01" angle="241.30" type="Truck" speed="5.30" pos="19.49" lane="692792970#0_0" slope="0.00"/>
        <vehicle id="12" x="730.63" y="310.89" angle="0.95" type="Car" speed="11.30" pos="35.94" lane="-5069579#2_0" slope="0.00"/>
        <vehicle id="15" x="21.67" y="293.94" angle="151.84" type="Sport" speed="12.98" pos="41.55" lane="441319290_0" slope="0.00"/>
        <vehicle id="16" x="428.20" y="428.49" angle="353.66" type="Sport" speed="10.83" pos="31.08" lane="174274186#0_0" slope="0.00"/>
        <vehicle id="17" x="422.64" y="6.51" angle="268.14" type="Truck" speed="1.09" pos="6.65" lane="174600936#1_0" slope="0.00"/>
        <vehicle id="18" x="608.42" y="43.38" angle="56.48" type="Sport" speed="7.61" pos="29.05" lane="373852729_0" slope="0.00"/>
        <vehicle id="2" x="110.49" y="154.35" angle="318.12" type="Sport" speed="1.55" pos="4.11" lane="758932760#1_0" slope="0.00"/>
        <vehicle id="21" x="586.27" y="36.11" angle="89.54" type="Car" speed="2.07" pos="5.21" lane="373852729_0" slope="0.00"/>
        <vehicle id="22" x="418.17" y="62.41" angle="12.87" type="Sport" speed="6.90" pos="31.38" lane="247499957#1_0" slope="0.00"/>
        <vehicle id="23" x="556.88" y="302.70" angle="49.35" type="Car" speed="5.41" pos="1.88" lane=":2545840640_0_0" slope="0.00"/>
        <vehicle id="24" x="125.53" y="142.14" angle="246.05" type="Truck" speed="5.07" pos="10.02" lane=":cluster_1561456753_1561456754_1561456757_4814946292_641179_7088286966_1_0" slope="0.00"/>
        <vehicle id="27" x="621.07" y="541.48" angle="276.53" type="Car" speed="12.05" pos="37.05" lane="22374974#0_0" slope="0.00"/>
        <vehicle id="29" x="683.83" y="90.64" angle="343.43" type="Sport" speed="8.23" pos="28.75" lane="5073085_0" slope="0.00"/>
        <vehicle id="3" x="364.99" y="55.79" angle="329.00" type="Car" speed="11.46" pos="38.04" lane="472503797_0" slope="0.00"/>
        <vehicle id="5" x="134.95" y="108.90" angle="161.21" type="Sport" speed="12.16" pos="17.39" lane=":cluster_1561456749_1561456750_0_0" slope="0.00"/>
        <vehicle id="6" x="402.90" y="10.33" angle="283.16" type="Truck" speed="5.25" pos="6.46" lane=":cluster_1851644000_1852665910_1852665932_798826569_0_0" slope="0.00"/>
        <vehicle id="7" x="737.50" y="96.16" angle="174.01" type="Sport" speed="8.33" pos="32.40" lane="-5069792#1_0" slope="0.00"/>
        <vehicle id="9" x="641.21" y="187.19" angle="235.98" type="Truck" speed="4.80" pos="17.86" lane="5069790_0" slope="0.00"/>
    </timestep>
    <timestep time="7.00">
        <vehicle id="0" x="610.04" y="197.10" angle="11.46" type="Truck" speed="7.30" pos="31.28" lane="-72369035#2_0" slope="0.00"/>
        <vehicle id="1" x="94.23" y="176.33" angle="329.78" type="Truck" speed="7.08" pos="12.57" lane="-49587760_0" slope="0.00"/>
        <vehicle id="10" x="651.16" y="105.45" angle="57.29" type="Sport" speed="12.68" pos="51.66" lane="553918577#1_0" slope="0.00"/>
        <vehicle id="11" x="855.86" y="459.98" angle="241.30" type="Truck" speed="6.31" pos="25.80" lane="692792970#0_0" slope="0.00"/>
        <vehicle id="12" x="731.14" y="324.54" angle="3.24" type="Car" speed="13.66" pos="49.59" lane="-5069579#2_0" slope="0.00"/>
        <vehicle id="15" x="28.19" y="282.23" angle="150.63" type="Sport" speed="13.34" pos="0.05" lane="159016933#0_0" slope="0.00"/>
        <vehicle id="16" x="427.14" y="441.30" angle="355.46" type="Sport" speed="12.86" pos="43.94" lane="174274186#0_0" slope="0.00"/>
        <vehicle id="17" x="420.78" y="6.72" angle="273.27" type="Truck" speed="1.89" pos="1.11" lane="174600936#2_0" slope="0.00"/>
        <vehicle id="18" x="615.45" y="41.97" angle="100.41" type="Sport" speed="7.60" pos="36.66" lane="373852729_0" slope="0.00"/>
        <vehicle id="2" x="109.55" y="155.40" angle="318.12" type="Sport" speed="1.41" pos="5.52" lane="758932760#1_0" slope="0.00"/>
        <vehicle id="21" x="588.90" y="36.20" angle="85.65" type="Car" speed="2.63" pos="7.84" lane="373852729_0" slope="0.00"/>
        <vehicle id="22" x="419.56" y="68.49" angle="12.87" type="Sport" speed="6.24" pos="37.62" lane="247499957#1_0" slope="0.00"/>
        <vehicle id="23" x="562.01" y="302.83" angle="119.95" type="Car" speed="5.52" pos="7.40" lane=":2545840640_0_0" slope="0.00"/>
        <vehicle id="24" x="120.37" y="139.12" angle="238.70" type="Truck" speed="6.00" pos="16.02" lane=":cluster_1561456753_1561456754_1561456757_4814946292_641179_7088286966_1_0" slope="0.00"/>
        <vehicle id="27" x="606.21" y="543.18" angle="276.53" type="Car" speed="14.96" pos="52.01" lane="22374974#0_0" slope="0.00"/>
        <vehicle id="29" x="681.71" y="97.78" angle="343.43" type="Sport" speed="7.46" pos="36.20" lane="5073085_0" slope="0.00"/>
        <vehicle id="3" x="358.27" y="66.99" angle="329.00" type="Car" speed="13.04" pos="51.08" lane="472503797_0" slope="0.00"/>
        <vehicle id="5" x="140.61" y="95.88" angle="154.79" type="Sport" speed="14.21" pos="31.60" lane=":cluster_1561456749_1561456750_0_0" slope="0.00"/>
        <vehicle id="6" x="397.17" y="12.34" angle="294.35" type="Truck" speed="6.10" pos="3.95" lane="247500055#0_0" slope="0.00"/>
        <vehicle id="7" x="738.29" y="88.59" angle="174.01" type="Sport" speed="7.61" pos="40.02" lane="-5069792#1_0" slope="0.00"/>
        <vehicle id="9" x="636.30" y="183.88" angle="236.01" type="Truck" speed="5.93" pos="23.79" lane="5069790_0" slope="0.00"/>
    </timestep>
    <timestep time="8.00">
        <vehicle id="0" x="611.39" y="205.41" angle="7.66" type="Truck" speed="8.43" pos="39.71" lane="-72369035#2_0" slope="0.00"/>
        <vehicle id="1" x="90.03" y="183.54" angle="329.78" type="Truck" speed="8.35" pos="20.92" lane="-49587760_0" slope="0.00"/>
        <vehicle id="10" x="661.19" y="111.63" angle="61.95" type="Sport" speed="11.79" pos="63.45" lane="553918577#1_0" slope="0.00"/>
        <vehicle id="11" x="849.12" y="456.29" angle="241.30" type="Truck" speed="7.68" pos="33.48" lane="692792970#0_0" slope="0.00"/>
        <vehicle id="12" x="731.84" y="336.91" angle="3.24" type="Car" speed="12.40" pos="61.99" lane="-5069579#2_0" slope="0.00"/>
        <vehicle id="15" x="35.07" y="269.90" angle="151.81" type="Sport" speed="14.13" pos="14.18" lane="159016933#0_0" slope="0.00"/>
        <vehicle id="16" x="426.06" y="454.85" angle="355.46" type="Sport" speed="13.59" pos="57.53" lane="174274186#0_0" slope="0.00"/>
        <vehicle id="17" x="418.38" y="7.16" angle="280.37" type="Truck" speed="2.44" pos="3.55" lane="174600936#2_0" slope="0.00"/>
        <vehicle id="18" x="622.93" y="42.11" angle="83.88" type="Sport" speed="7.53" pos="44.19" lane="373852729_0" slope="0.00"/>
        <vehicle id="2" x="107.65" y="157.52" angle="318.12" type="Sport" speed="2.85" pos="8.37" lane="758932760#1_0" slope="0.00"/>
        <vehicle id="21" x="592.15" y="36.46" angle="85.34" type="Car" speed="3.26" pos="11.10" lane="373852729_0" slope="0.00"/>
        <vehicle id="22" x="421.09" y="75.19" angle="12.87" type="Sport" speed="6.87" pos="44.49" lane="247499957#1_0" slope="0.00"/>
        <vehicle id="23" x="566.75" y="299.15" angle="129.87" type="Car" speed="6.01" pos="4.44" lane="5069788_0" slope="0.00"/>
        <vehicle id="24" x="117.73" y="133.18" angle="184.98" type="Truck" speed="6.96" pos="22.98" lane=":cluster_1561456753_1561456754_1561456757_4814946292_641179_7088286966_1_0" slope="0.00"/>
        <vehicle id="27" x="590.55" y="544.97" angle="276.53" type="Car" speed="15.75" pos="67.76" lane="22374974#0_0" slope="0.00"/>
        <vehicle id="29" x="679.68" y="104.59" angle="343.43" type="Sport" speed="7.10" pos="43.30" lane="5073085_0" slope="0.00"/>
        <vehicle id="3" x="350.74" y="79.52" angle="329.00" type="Car" speed="14.59" pos="65.67" lane="472503797_0" slope="0.00"/>
        <vehicle id="5" x="147.03" y="83.44" angle="152.51" type="Sport" speed="14.01" pos="12.91" lane="148754587#0_3" slope="0.00"/>
        <vehicle id="6" x="390.98" y="15.54" angle="300.78" type="Truck" speed="6.99" pos="0.57" lane=":1852665928_0_0" slope="0.00"/>
        <vehicle id="7" x="738.95" y="82.34" angle="174.01" type="Sport" speed="6.28" pos="46.30" lane="-5069792#1_0" slope="0.00"/>
        <vehicle id="9" x="630.89" y="179.69" angle="227.27" type="Truck" speed="6.87" pos="30.65" lane="5069790_0" slope="0.00"/>
    </timestep>
    <timestep time="9.00">
        <vehicle id="0" x="612.62" y="214.59" angle="7.66" type="Truck" speed="9.26" pos="48.96" lane="-72369035#2_0" slope="0.00"/>
        <vehicle id="1" x="85.24" y="191.77" angle="329.88" type="Truck" speed="9.52" pos="30.44" lane="-49587760_0" slope="0.00"/>
        <vehicle id="10" x="671.62" y="117.67" angle="57.32" type="Sport" speed="12.06" pos="5.25" lane=":651535_3_0" slope="0.00"/>
        <vehicle id="11" x="841.56" y="452.16" angle="241.30" type="Truck" speed="8.62" pos="42.10" lane="692792970#0_0" slope="0.00"/>
        <vehicle id="12" x="732.33" y="344.33" angle="6.37" type="Car" speed="7.44" pos="69.42" lane="-5069579#2_0" slope="0.00"/>
        <vehicle id="15" x="41.40" y="258.09" angle="151.81" type="Sport" speed="13.41" pos="27.58" lane="159016933#0_0" slope="0.00"/>
        <vehicle id="16" x="424.98" y="468.51" angle="355.46" type="Sport" speed="13.71" pos="71.24" lane="174274186#0_0" slope="0.00"/>
        <vehicle id="17" x="415.23" y="7.73" angle="280.37" type="Truck" speed="3.19" pos="6.74" lane="174600936#2_0" slope="0.00"/>
        <vehicle id="18" x="630.75" y="43.50" angle="75.93" type="Sport" speed="7.94" pos="52.13" lane="373852729_0" slope="0.00"/>
        <vehicle id="2" x="105.08" y="160.38" angle="318.12" type="Sport" speed="3.85" pos="12.22" lane="758932760#1_0" slope="0.00"/>
        <vehicle id="21" x="596.16" y="37.15" angle="75.57" type="Car" speed="4.08" pos="15.18" lane="373852729_0" slope="0.00"/>
        <vehicle id="22" x="422.67" y="82.12" angle="12.87" type="Sport" speed="7.11" pos="51.60" lane="247499957#1_0" slope="0.00"/>
        <vehicle id="23" x="572.69" y="294.30" angle="129.22" type="Car" speed="7.67" pos="12.11" lane="5069788_0" slope="0.00"/>
        <vehicle id="24" x="123.42" y="127.34" angle="151.45" type="Truck" speed="8.02" pos="5.16" lane="4850965_2" slope="0.00"/>
        <vehicle id="27" x="574.92" y="546.76" angle="276.53" type="Car" speed="15.73" pos="83.50" lane="22374974#0_0" slope="0.00"/>
        <vehicle id="29" x="677.40" y="112.25" angle="343.43" type="Sport" speed="7.99" pos="51.30" lane="5073085_0" slope="0.00"/>
        <vehicle id="3" x="345.27" y="88.62" angle="329.00" type="Car" speed="10.60" pos="76.26" lane="472503797_0" slope="0.00"/>
        <vehicle id="5" x="153.36" y="71.73" angle="150.96" type="Sport" speed="13.33" pos="26.24" lane="148754587#0_3" slope="0.00"/>
        <vehicle id="6" x="384.96" y="20.69" angle="320.94" type="Truck" speed="8.01" pos="8.58" lane=":1852665928_0_0" slope="0.00"/>
        <vehicle id="7" x="739.29" y="79.58" angle="170.79" type="Sport" speed="2.79" pos="0.10" lane=":34216025_11_0" slope="0.00"/>
        <vehicle id="9" x="625.18" y="174.11" angle="225.69" type="Truck" speed="7.99" pos="38.64" lane="5069790_0" slope="0.00"/>
    </timestep>
    <timestep time="10.00">
        <vehicle id="0" x="614.04" y="225.14" angle="7.66" type="Truck" speed="10.65" pos="59.61" lane="-72369035#2_0" slope="0.00"/>
        <vehicle id="1" x="79.97" y="200.88" angle="329.90" type="Truck" speed="10.52" pos="40.97" lane="-49587760_0" slope="0.00"/>
        <vehicle id="10" x="682.50" y="124.07" angle="65.54" type="Sport" speed="12.62" pos="3.36" lane="492264419#0_1" slope="0.00"/>
        <vehicle id="11" x="833.17" y="447.56" angle="241.30" type="Truck" speed="9.56" pos="51.66" lane="692792970#0_0" slope="0.00"/>
        <vehicle id="12" x="731.18" y="347.56" angle="302.37" type="Car" speed="3.85" pos="0.10" lane=":162639_7_0" slope="0.00"/>
        <vehicle id="15" x="48.10" y="245.59" angle="151.81" type="Sport" speed="14.20" pos="41.78" lane="159016933#0_0" slope="0.00"/>
        <vehicle id="16" x="425.89" y="482.79" angle="10.67" type="Sport" speed="14.37" pos="85.61" lane="174274186#0_0" slope="0.00"/>
        <vehicle id="17" x="411.00" y="8.51" angle="280.32" type="Truck" speed="4.31" pos="11.05" lane="174600936#2_0" slope="0.00"/>
        <vehicle id="18" x="638.40" y="45.42" angle="75.93" type="Sport" speed="7.89" pos="60.02" lane="373852729_0" slope="0.00"/>
        <vehicle id="2" x="101.97" y="163.84" angle="318.12" type="Sport" speed="4.65" pos="16.87" lane="758932760#1_0" slope="0.00"/>
        <vehicle id="21" x="601.00" y="38.80" angle="67.09" type="Car" speed="5.13" pos="20.31" lane="373852729_0" slope="0.00"/>
        <vehicle id="22" x="424.10" y="88.39" angle="12.87" type="Sport" speed="6.42" pos="58.03" lane="247499957#1_0" slope="0.00"/>
        <vehicle id="23" x="580.12" y="288.23" angle="129.22" type="Car" speed="9.60" pos="21.71" lane="5069788_0" slope="0.00"/>
        <vehicle id="24" x="127.51" y="119.59" angle="153.58" type="Truck" speed="8.76" pos="2.18" lane=":cluster_1561456749_1561456750_2_2" slope="0.00"/>
        <vehicle id="27" x="560.03" y="548.21" angle="273.71" type="Car" speed="14.97" pos="98.47" lane="22374974#0_0" slope="0.00"/>
        <vehicle id="29" x="678.85" y="118.56" angle="40.65" type="Sport" speed="6.89" pos="6.78" lane=":651535_0_0" slope="0.00"/>
        <vehicle id="3" x="343.34" y="95.47" angle="10.22" type="Car" speed="7.36" pos="6.19" lane=":cluster_1116037885_641175_0_0" slope="0.00"/>
        <vehicle id="5" x="160.08" y="59.61" angle="150.96" type="Sport" speed="13.87" pos="40.11" lane="148754587#0_3" slope="0.00"/>
        <vehicle id="6" x="377.54" y="27.17" angle="330.75" type="Truck" speed="9.27" pos="7.00" lane="472503797_1" slope="0.00"/>
        <vehicle id="7" x="741.13" y="78.34" angle="101.78" type="Sport" speed="2.41" pos="2.51" lane=":34216025_11_0" slope="0.00"/>
        <vehicle id="9" x="618.86" y="167.49" angle="222.01" type="Truck" speed="9.15" pos="47.80" lane="5069790_0" slope="0.00"/>
    </timestep>
    <timestep time="11.00">
        <vehicle id="0" x="615.60" y="236.75" angle="7.66" type="Truck" speed="11.71" pos="71.32" lane="-72369035#2_0" slope="0.00"/>