<?xml version="1.0" encoding="UTF-8"?>

<!-- generated on 08/29/19 13:34:35 by Eclipse SUMO Version 1.2.0
<configuration xmlns:xsi="http://www.w3.org/2001/XMLSchema-instance" xsi:noNamespaceSchemaLocation="http://sumo.dlr.de/xsd/sumoConfiguration.xsd">

    <input>
        <net-file value="mapNetconvert.net.xml"/>
        <route-files value="models/random/routes.rou.xml"/>
    </input>

    <output>
        <fcd-output value="C:\Users\darkm\Documents\Mogen\models\random\mapNetconvert.fcd"/>
    </output>

</configuration>
-->

<fcd-export xmlns:xsi="http://www.w3.org/2001/XMLSchema-instance" xsi:noNamespaceSchemaLocation="http://sumo.dlr.de/xsd/fcd_file.xsd">
    <timestep time="0.00">
        <vehicle id="0" x="508.17" y="366.79" angle="129.50" type="Truck" speed="0.00" pos="3.10" lane="-47368030#1_0" slope="0.00"/>
        <vehicle id="1" x="386.41" y="696.18" angle="338.19" type="Truck" speed="0.00" pos="3.10" lane="47360668_0" slope="0.00"/>
    </timestep>
    <timestep time="1.00">
        <vehicle id="0" x="509.21" y="365.93" angle="129.50" type="Truck" speed="1.35" pos="4.45" lane="-47368030#1_0" slope="0.00"/>
        <vehicle id="1" x="385.92" y="697.41" angle="338.19" type="Truck" speed="1.33" pos="4.43" lane="47360668_0" slope="0.00"/>
        <vehicle id="10" x="355.79" y="676.67" angle="247.28" type="Sport" speed="0.00" pos="1.10" lane="47360669#1_0" slope="0.00"/>
        <vehicle id="11" x="248.30" y="373.43" angle="197.08" type="Truck" speed="0.00" pos="3.10" lane="-47425124#2_0" slope="0.00"/>
        <vehicle id="12" x="316.38" y="656.43" angle="66.64" type="Car" speed="0.00" pos="1.10" lane="-47360669#2_0" slope="0.00"/>
        <vehicle id="13" x="426.63" y="642.54" angle="199.86" type="Car" speed="0.00" pos="1.10" lane="-47370578#4_0" slope="0.00"/>
        <vehicle id="14" x="259.33" y="439.89" angle="179.74" type="Car" speed="0.00" pos="1.10" lane="228371138#0_0" slope="0.00"/>
        <vehicle id="15" x="534.42" y="288.63" angle="130.17" type="Sport" speed="0.00" pos="1.10" lane="38319153#0_0" slope="0.00"/>
        <vehicle id="16" x="391.92" y="716.72" angle="242.08" type="Sport" speed="0.00" pos="1.10" lane="144152790#0_0" slope="0.00"/>
        <vehicle id="17" x="570.28" y="380.49" angle="157.10" type="Truck" speed="0.00" pos="3.10" lane="47368033_0" slope="0.00"/>
        <vehicle id="18" x="198.56" y="606.93" angle="184.43" type="Sport" speed="0.00" pos="1.10" lane="47360654#0_0" slope="0.00"/>
        <vehicle id="19" x="519.56" y="651.54" angle="217.31" type="Truck" speed="0.00" pos="3.10" lane="-47371425#0_0" slope="0.00"/>
        <vehicle id="2" x="583.56" y="427.31" angle="64.26" type="Sport" speed="0.00" pos="1.10" lane="-38569906#1_0" slope="0.00"/>
        <vehicle id="20" x="605.18" y="441.28" angle="244.26" type="Sport" speed="0.00" pos="1.10" lane="38569906#1_0" slope="0.00"/>
        <vehicle id="21" x="239.95" y="459.63" angle="286.77" type="Car" speed="0.00" pos="1.10" lane="228371137#1_0" slope="0.00"/>
        <vehicle id="22" x="320.41" y="790.00" angle="131.33" type="Sport" speed="0.00" pos="1.10" lane="-228371100#7_0" slope="0.00"/>
        <vehicle id="24" x="559.85" y="410.99" angle="321.88" type="Truck" speed="0.00" pos="0.20" lane="47368035_0" slope="0.00"/>
        <vehicle id="25" x="507.60" y="536.34" angle="26.02" type="Truck" speed="0.00" pos="3.10" lane="-47370606#1_0" slope="0.00"/>
        <vehicle id="26" x="209.34" y="276.21" angle="286.14" type="Truck" speed="0.00" pos="3.10" lane="47360624#0_0" slope="0.00"/>
        <vehicle id="27" x="560.48" y="419.67" angle="244.49" type="Car" speed="0.00" pos="0.20" lane="38569906#3_0" slope="0.00"/>
        <vehicle id="28" x="397.25" y="729.88" angle="312.12" type="Car" speed="0.00" pos="1.10" lane="228371100#6_0" slope="0.00"/>
        <vehicle id="29" x="355.38" y="216.45" angle="222.70" type="Sport" speed="0.00" pos="1.10" lane="38569906#10_0" slope="0.00"/>
        <vehicle id="3" x="435.33" y="585.48" angle="188.85" type="Car" speed="0.00" pos="1.10" lane="-47370578#3_0" slope="0.00"/>
        <vehicle id="30" x="575.51" y="407.72" angle="312.82" type="Sport" speed="0.00" pos="0.20" lane="47368031#3_0" slope="0.00"/>
        <vehicle id="31" x="212.83" y="710.71" angle="68.01" type="Sport" speed="0.00" pos="1.10" lane="47360663#0_0" slope="0.00"/>
        <vehicle id="32" x="493.37" y="381.45" angle="311.20" type="Truck" speed="0.00" pos="3.10" lane="47370609#0_0" slope="0.00"/>
        <vehicle id="33" x="553.60" y="566.06" angle="328.15" type="Sport" speed="0.00" pos="1.10" lane="228371100#1_0" slope="0.00"/>
        <vehicle id="34" x="553.07" y="734.32" angle="280.26" type="Truck" speed="0.00" pos="3.10" lane="47371437#0_0" slope="0.00"/>
        <vehicle id="35" x="489.21" y="302.40" angle="221.67" type="Sport" speed="0.00" pos="1.10" lane="-47370616_0" slope="0.00"/>
        <vehicle id="36" x="613.80" y="441.91" angle="64.00" type="Truck" speed="0.00" pos="1.75" lane="-38569906#0_0" slope="0.00"/>
        <vehicle id="37" x="508.66" y="622.20" angle="138.47" type="Sport" speed="0.00" pos="1.10" lane="-228371100#1_0" slope="0.00"/>
        <vehicle id="39" x="478.17" y="616.47" angle="39.45" type="Sport" speed="0.00" pos="1.10" lane="-47370593#1_0" slope="0.00"/>
        <vehicle id="4" x="228.53" y="309.13" angle="197.09" type="Car" speed="0.00" pos="1.10" lane="-47425124#1_0" slope="0.00"/>
        <vehicle id="40" x="566.13" y="390.69" angle="110.15" type="Car" speed="0.00" pos="0.20" lane="47368031#1_0" slope="0.00"/>
        <vehicle id="41" x="620.60" y="274.61" angle="311.27" type="Truck" speed="0.00" pos="3.10" lane="47368030#0_0" slope="0.00"/>
        <vehicle id="42" x="606.74" y="480.56" angle="328.14" type="Sport" speed="0.00" pos="1.10" lane="228371100#0_0" slope="0.00"/>
        <vehicle id="43" x="463.56" y="663.12" angle="131.20" type="Sport" speed="0.00" pos="1.10" lane="-228371100#3_0" slope="0.00"/>
        <vehicle id="44" x="553.90" y="424.04" angle="337.21" type="Sport" speed="0.00" pos="1.10" lane="-47370606#4_0" slope="0.00"/>
        <vehicle id="45" x="424.36" y="286.24" angle="43.24" type="Car" speed="0.00" pos="1.10" lane="-38569906#7_0" slope="0.00"/>
        <vehicle id="49" x="557.91" y="325.38" angle="131.27" type="Truck" speed="0.00" pos="3.10" lane="-47368030#0_0" slope="0.00"/>
        <vehicle id="6" x="458.22" y="341.60" angle="312.12" type="Truck" speed="0.00" pos="3.10" lane="47370610#0_0" slope="0.00"/>
        <vehicle id="7" x="160.25" y="473.42" angle="197.82" type="Sport" speed="0.00" pos="1.10" lane="47360654#1_0" slope="0.00"/>
        <vehicle id="8" x="464.59" y="406.63" angle="311.18" type="Car" speed="0.00" pos="1.10" lane="47370609#1_0" slope="0.00"/>
        <vehicle id="9" x="506.46" y="311.25" angle="131.84" type="Truck" speed="0.00" pos="3.10" lane="-47368027_0" slope="0.00"/>
    </timestep>
    <timestep time="2.00">
        <vehicle id="0" x="511.13" y="364.35" angle="129.50" type="Truck" speed="2.49" pos="6.94" lane="-47368030#1_0" slope="0.00"/>
        <vehicle id="1" x="385.12" y="699.40" angle="338.19" type="Truck" speed="2.15" pos="6.58" lane="47360668_0" slope="0.00"/>
        <vehicle id="10" x="353.68" y="675.78" angle="247.28" type="Sport" speed="2.29" pos="3.39" lane="47360669#1_0" slope="0.00"/>
        <vehicle id="11" x="247.90" y="372.11" angle="197.08" type="Truck" speed="1.38" pos="4.48" lane="-47425124#2_0" slope="0.00"/>
        <vehicle id="12" x="317.86" y="657.07" angle="66.64" type="Car" speed="1.62" pos="2.72" lane="-47360669#2_0" slope="0.00"/>
        <vehicle id="13" x="425.99" y="640.77" angle="199.86" type="Car" speed="1.88" pos="2.98" lane="-47370578#4_0" slope="0.00"/>
        <vehicle id="14" x="259.33" y="438.10" angle="179.74" type="Car" speed="1.79" pos="2.89" lane="228371138#0_0" slope="0.00"/>
        <vehicle id="15" x="535.97" y="287.33" angle="130.17" type="Sport" speed="2.02" pos="3.12" lane="38319153#0_0" slope="0.00"/>
        <vehicle id="16" x="390.51" y="715.97" angle="242.08" type="Sport" speed="1.60" pos="2.70" lane="144152790#0_0" slope="0.00"/>
        <vehicle id="17" x="570.74" y="379.40" angle="157.10" type="Truck" speed="1.19" pos="4.29" lane="47368033_0" slope="0.00"/>
        <vehicle id="18" x="198.36" y="604.42" angle="184.43" type="Sport" speed="2.52" pos="3.62" lane="47360654#0_0" slope="0.00"/>
        <vehicle id="19" x="518.95" y="650.74" angle="217.31" type="Truck" speed="1.01" pos="4.11" lane="-47371425#0_0" slope="0.00"/>
        <vehicle id="2" x="586.24" y="428.60" angle="64.26" type="Sport" speed="2.98" pos="4.08" lane="-38569906#1_0" slope="0.00"/>
        <vehicle id="20" x="603.07" y="440.27" angle="244.26" type="Sport" speed="2.34" pos="3.44" lane="38569906#1_0" slope="0.00"/>
        <vehicle id="21" x="238.49" y="460.07" angle="286.77" type="Car" speed="1.52" pos="2.62" lane="228371137#1_0" slope="0.00"/>
        <vehicle id="22" x="322.07" y="788.54" angle="131.33" type="Sport" speed="2.21" pos="3.31" lane="-228371100#7_0" slope="0.00"/>
        <vehicle id="23" x="160.25" y="473.42" angle="197.82" type="Car" speed="0.00" pos="1.10" lane="47360654#1_0" slope="0.00"/>
        <vehicle id="24" x="559.85" y="410.99" angle="321.88" type="Truck" speed="0.00" pos="0.20" lane="47368035_0" slope="0.00"/>
        <vehicle id="25" x="508.38" y="537.22" angle="32.44" type="Truck" speed="1.17" pos="4.27" lane="-47370606#1_0" slope="0.00"/>
        <vehicle id="26" x="208.12" y="276.57" angle="286.14" type="Truck" speed="1.27" pos="4.37" lane="47360624#0_0" slope="0.00"/>
        <vehicle id="27" x="558.38" y="418.65" angle="244.17" type="Car" speed="2.33" pos="2.33" lane=":603087580_1_0" slope="0.00"/>
        <vehicle id="28" x="395.43" y="731.52" angle="312.12" type="Car" speed="2.45" pos="3.55" lane="228371100#6_0" slope="0.00"/>
        <vehicle id="29" x="354.26" y="215.24" angle="222.70" type="Sport" speed="1.65" pos="2.75" lane="38569906#10_0" slope="0.00"/>
        <vehicle id="3" x="435.09" y="584.00" angle="189.39" type="Car" speed="1.51" pos="2.61" lane="-47370578#3_0" slope="0.00"/>
        <vehicle id="30" x="573.64" y="409.44" angle="312.58" type="Sport" speed="2.54" pos="2.54" lane=":603087560_0_0" slope="0.00"/>
        <vehicle id="31" x="214.91" y="711.55" angle="68.01" type="Sport" speed="2.24" pos="3.34" lane="47360663#0_0" slope="0.00"/>
        <vehicle id="32" x="492.48" y="382.23" angle="311.20" type="Truck" speed="1.19" pos="4.29" lane="47370609#0_0" slope="0.00"/>
        <vehicle id="33" x="552.59" y="567.70" angle="328.15" type="Sport" speed="1.92" pos="3.02" lane="228371100#1_0" slope="0.00"/>
        <vehicle id="34" x="552.11" y="734.40" angle="278.40" type="Truck" speed="0.96" pos="4.06" lane="47371437#0_0" slope="0.00"/>
        <vehicle id="35" x="487.88" y="300.91" angle="221.67" type="Sport" speed="1.99" pos="3.09" lane="-47370616_0" slope="0.00"/>
        <vehicle id="36" x="613.80" y="441.91" angle="64.00" type="Truck" speed="0.00" pos="1.75" lane="-38569906#0_0" slope="0.00"/>
        <vehicle id="37" x="512.00" y="623.26" angle="138.61" type="Sport" speed="1.75" pos="2.85" lane="-228371100#1_1" slope="0.00"/>
        <vehicle id="39" x="479.70" y="618.33" angle="39.45" type="Sport" speed="2.40" pos="3.50" lane="-47370593#1_0" slope="0.00"/>
        <vehicle id="4" x="228.06" y="307.61" angle="197.09" type="Car" speed="1.59" pos="2.69" lane="-47425124#1_0" slope="0.00"/>
        <vehicle id="40" x="568.26" y="390.20" angle="102.86" type="Car" speed="2.18" pos="2.18" lane=":603087563_2_0" slope="0.00"/>
        <vehicle id="41" x="619.58" y="275.51" angle="311.27" type="Truck" speed="1.35" pos="4.45" lane="47368030#0_0" slope="0.00"/>
        <vehicle id="42" x="605.20" y="483.04" angle="328.14" type="Sport" speed="2.92" pos="4.02" lane="228371100#0_0" slope="0.00"/>
        <vehicle id="43" x="464.90" y="661.94" angle="131.20" type="Sport" speed="1.78" pos="2.88" lane="-228371100#3_0" slope="0.00"/>
        <vehicle id="44" x="553.20" y="425.72" angle="337.21" type="Sport" speed="1.82" pos="2.92" lane="-47370606#4_0" slope="0.00"/>
        <vehicle id="45" x="426.24" y="288.24" angle="43.24" type="Car" speed="2.74" pos="3.84" lane="-38569906#7_0" slope="0.00"/>
        <vehicle id="49" x="558.58" y="324.78" angle="131.27" type="Truck" speed="0.90" pos="4.00" lane="-47368030#0_0" slope="0.00"/>
        <vehicle id="6" x="457.29" y="342.44" angle="312.12" type="Truck" speed="1.25" pos="4.35" lane="47370610#0_0" slope="0.00"/>
        <vehicle id="7" x="159.39" y="470.74" angle="197.82" type="Sport" speed="2.82" pos="3.92" lane="47360654#1_0" slope="0.00"/>
        <vehicle id="8" x="463.40" y="407.68" angle="311.18" type="Car" speed="1.59" pos="2.69" lane="47370609#1_0" slope="0.00"/>
        <vehicle id="9" x="507.00" y="310.77" angle="131.84" type="Truck" speed="0.73" pos="3.83" lane="-47368027_0" slope="0.00"/>
    </timestep>
    <timestep time="3.00">
        <vehicle id="0" x="513.61" y="362.30" angle="129.50" type="Truck" speed="3.21" pos="10.15" lane="-47368030#1_0" slope="0.00"/>
        <vehicle id="1" x="383.91" y="702.42" angle="338.19" type="Truck" speed="3.25" pos="9.83" lane="47360668_0" slope="0.00"/>
        <vehicle id="10" x="349.22" y="673.92" angle="247.28" type="Sport" speed="4.83" pos="8.22" lane="47360669#1_0" slope="0.00"/>
        <vehicle id="11" x="247.09" y="369.50" angle="197.08" type="Truck" speed="2.74" pos="7.21" lane="-47425124#2_0" slope="0.00"/>
        <vehicle id="12" x="321.51" y="658.64" angle="66.64" type="Car" speed="3.97" pos="6.69" lane="-47360669#2_0" slope="0.00"/>
        <vehicle id="13" x="426.04" y="637.15" angle="166.13" type="Car" speed="3.77" pos="6.75" lane="-47370578#4_0" slope="0.00"/>
        <vehicle id="14" x="258.92" y="434.46" angle="190.88" type="Car" speed="3.69" pos="6.57" lane="228371138#0_0" slope="0.00"/>
        <vehicle id="15" x="539.00" y="284.77" angle="130.17" type="Sport" speed="3.96" pos="7.09" lane="38319153#0_0" slope="0.00"/>
        <vehicle id="16" x="387.38" y="714.31" angle="242.08" type="Sport" speed="3.54" pos="6.23" lane="144152790#0_0" slope="0.00"/>
        <vehicle id="17" x="571.90" y="377.46" angle="150.93" type="Truck" speed="2.30" pos="6.59" lane="47368033_0" slope="0.00"/>
        <vehicle id="18" x="197.31" y="599.21" angle="196.32" type="Sport" speed="5.34" pos="8.96" lane="47360654#0_0" slope="0.00"/>
        <vehicle id="19" x="517.54" y="648.89" angle="217.31" type="Truck" speed="2.32" pos="6.43" lane="-47371425#0_0" slope="0.00"/>
        <vehicle id="2" x="591.60" y="431.19" angle="64.26" type="Sport" speed="5.95" pos="10.03" lane="-38569906#1_0" slope="0.00"/>
        <vehicle id="20" x="598.93" y="438.27" angle="244.26" type="Sport" speed="4.60" pos="8.04" lane="38569906#1_0" slope="0.00"/>
        <vehicle id="21" x="234.27" y="461.34" angle="286.77" type="Car" speed="4.41" pos="7.03" lane="228371137#1_0" slope="0.00"/>
        <vehicle id="22" x="325.22" y="785.77" angle="131.33" type="Sport" speed="4.20" pos="7.52" lane="-228371100#7_0" slope="0.00"/>
        <vehicle id="23" x="160.23" y="473.34" angle="197.82" type="Car" speed="0.09" pos="1.19" lane="47360654#1_0" slope="0.00"/>
        <vehicle id="24" x="559.85" y="410.99" angle="321.88" type="Truck" speed="0.00" pos="0.20" lane="47368035_0" slope="0.00"/>
        <vehicle id="25" x="509.67" y="538.65" angle="42.04" type="Truck" speed="1.93" pos="6.20" lane="-47370606#1_0" slope="0.00"/>
        <vehicle id="26" x="205.64" y="277.28" angle="286.14" type="Truck" speed="2.58" pos="6.96" lane="47360624#0_0" slope="0.00"/>
        <vehicle id="27" x="553.95" y="416.51" angle="244.17" type="Car" speed="4.92" pos="7.26" lane=":603087580_1_0" slope="0.00"/>
        <vehicle id="28" x="392.10" y="734.53" angle="312.12" type="Car" speed="4.49" pos="8.04" lane="228371100#6_0" slope="0.00"/>
        <vehicle id="29" x="351.11" y="211.82" angle="222.70" type="Sport" speed="4.65" pos="7.41" lane="38569906#10_0" slope="0.00"/>
        <vehicle id="3" x="434.33" y="580.66" angle="192.84" type="Car" speed="3.42" pos="6.02" lane="-47370578#3_0" slope="0.00"/>
        <vehicle id="30" x="571.38" y="413.17" angle="337.67" type="Sport" speed="4.40" pos="6.95" lane=":603087560_0_0" slope="0.00"/>
        <vehicle id="31" x="218.90" y="713.16" angle="68.01" type="Sport" speed="4.30" pos="7.64" lane="47360663#0_0" slope="0.00"/>
        <vehicle id="32" x="490.77" y="383.73" angle="311.20" type="Truck" speed="2.27" pos="6.56" lane="47370609#0_0" slope="0.00"/>
        <vehicle id="33" x="550.42" y="571.18" angle="328.15" type="Sport" speed="4.10" pos="7.12" lane="228371100#1_0" slope="0.00"/>
        <vehicle id="34" x="550.09" y="734.57" angle="274.76" type="Truck" speed="2.03" pos="6.09" lane="47371437#0_0" slope="0.00"/>
        <vehicle id="35" x="485.40" y="298.12" angle="221.67" type="Sport" speed="3.73" pos="6.82" lane="-47370616_0" slope="0.00"/>
        <vehicle id="36" x="614.40" y="442.94" angle="50.73" type="Truck" speed="1.19" pos="1.19" lane=":455956186_3_0" slope="0.00"/>
        <vehicle id="37" x="514.69" y="619.93" angle="143.71" type="Sport" speed="4.26" pos="7.10" lane="-228371100#1_1" slope="0.00"/>
        <vehicle id="38" x="464.59" y="406.63" angle="311.18" type="Sport" speed="0.00" pos="1.10" lane="47370609#1_0" slope="0.00"/>
        <vehicle id="39" x="483.11" y="622.48" angle="39.45" type="Sport" speed="5.38" pos="8.88" lane="-47370593#1_0" slope="0.00"/>
        <vehicle id="4" x="227.14" y="304.63" angle="197.09" type="Car" speed="3.12" pos="5.81" lane="-47425124#1_0" slope="0.00"/>
        <vehicle id="40" x="572.41" y="390.75" angle="71.64" type="Car" speed="4.25" pos="6.43" lane=":603087563_2_0" slope="0.00"/>
        <vehicle id="41" x="617.95" y="276.94" angle="311.27" type="Truck" speed="2.18" pos="6.63" lane="47368030#0_0" slope="0.00"/>
        <vehicle id="42" x="602.30" y="487.71" angle="328.14" type="Sport" speed="5.50" pos="9.52" lane="228371100#0_0" slope="0.00"/>
        <vehicle id="43" x="467.45" y="659.71" angle="131.20" type="Sport" speed="3.40" pos="6.28" lane="-228371100#3_0" slope="0.00"/>
        <vehicle id="44" x="551.43" y="429.93" angle="337.21" type="Sport" speed="4.56" pos="7.49" lane="-47370606#4_0" slope="0.00"/>
        <vehicle id="45" x="429.61" y="291.82" angle="43.24" type="Car" speed="4.92" pos="8.76" lane="-38569906#7_0" slope="0.00"/>
        <vehicle id="46" x="259.33" y="439.89" angle="179.74" type="Sport" speed="0.00" pos="1.10" lane="228371138#0_0" slope="0.00"/>
        <vehicle id="47" x="198.40" y="604.94" angle="184.43" type="Truck" speed="0.00" pos="3.10" lane="47360654#0_0" slope="0.00"/>
        <vehicle id="48" x="489.21" y="302.40" angle="221.67" type="Sport" speed="0.00" pos="1.10" lane="-47370616_0" slope="0.00"/>
        <vehicle id="49" x="560.30" y="323.28" angle="131.27" type="Truck" speed="2.29" pos="6.28" lane="-47368030#0_0" slope="0.00"/>
        <vehicle id="6" x="455.38" y="344.16" angle="312.12" type="Truck" speed="2.58" pos="6.93" lane="47370610#0_0" slope="0.00"/>
        <vehicle id="7" x="158.04" y="466.53" angle="197.82" type="Sport" speed="4.42" pos="8.34" lane="47360654#1_0" slope="0.00"/>
        <vehicle id="8" x="460.01" y="410.64" angle="311.18" type="Car" speed="4.50" pos="7.19" lane="47370609#1_0" slope="0.00"/>
        <vehicle id="9" x="508.15" y="309.74" angle="131.84" type="Truck" speed="1.54" pos="5.37" lane="-47368027_0" slope="0.00"/>
    </timestep>
    <timestep time="4.00">
        <vehicle id="0" x="516.77" y="359.70" angle="129.50" type="Truck" speed="4.09" pos="14.24" lane="-47368030#1_0" slope="0.00"/>
        <vehicle id="1" x="382.31" y="706.42" angle="338.19" type="Truck" speed="4.31" pos="14.14" lane="47360668_0" slope="0.00"/>
        <vehicle id="10" x="343.35" y="671.46" angle="247.28" type="Sport" speed="6.37" pos="14.59" lane="47360669#1_0" slope="0.00"/>
        <vehicle id="11" x="245.97" y="365.86" angle="197.08" type="Truck" speed="3.81" pos="11.02" lane="-47425124#2_0" slope="0.00"/>
        <vehicle id="12" x="326.90" y="660.97" angle="66.64" type="Car" speed="5.87" pos="12.56" lane="-47360669#2_0" slope="0.00"/>
        <vehicle id="13" x="427.43" y="631.55" angle="166.13" type="Car" speed="5.77" pos="12.52" lane="-47370578#4_0" slope="0.00"/>
        <vehicle id="14" x="257.81" y="428.72" angle="191.02" type="Car" speed="5.84" pos="4.92" lane=":2370547795_1_0" slope="0.00"/>
        <vehicle id="15" x="543.60" y="280.88" angle="130.17" type="Sport" speed="6.03" pos="13.11" lane="38319153#0_0" slope="0.00"/>
        <vehicle id="16" x="382.50" y="711.73" angle="242.14" type="Sport" speed="5.52" pos="0.78" lane=":603046486_0_0" slope="0.00"/>
        <vehicle id="17" x="574.15" y="375.34" angle="133.32" type="Truck" speed="3.09" pos="9.68" lane="47368033_0" slope="0.00"/>
        <vehicle id="18" x="195.17" y="591.90" angle="196.32" type="Sport" speed="7.62" pos="16.58" lane="47360654#0_0" slope="0.00"/>
        <vehicle id="19" x="515.54" y="646.27" angle="217.31" type="Truck" speed="3.30" pos="9.73" lane="-47371425#0_0" slope="0.00"/>
        <vehicle id="2" x="593.44" y="432.07" angle="64.26" type="Sport" speed="2.04" pos="12.07" lane="-38569906#1_0" slope="0.00"/>
        <vehicle id="20" x="592.13" y="434.99" angle="244.26" type="Sport" speed="7.55" pos="15.59" lane="38569906#1_0" slope="0.00"/>
        <vehicle id="21" x="227.55" y="463.36" angle="286.77" type="Car" speed="7.02" pos="14.05" lane="228371137#1_0" slope="0.00"/>
        <vehicle id="22" x="330.11" y="781.46" angle="131.33" type="Sport" speed="6.51" pos="14.03" lane="-228371100#7_0" slope="0.00"/>
        <vehicle id="23" x="160.09" y="472.91" angle="197.82" type="Car" speed="0.45" pos="1.64" lane="47360654#1_0" slope="0.00"/>
        <vehicle id="24" x="559.85" y="410.99" angle="321.88" type="Truck" speed="0.00" pos="0.20" lane="47368035_0" slope="0.00"/>
        <vehicle id="25" x="511.72" y="540.92" angle="42.04" type="Truck" speed="3.06" pos="9.26" lane="-47370606#1_0" slope="0.00"/>
        <vehicle id="26" x="202.44" y="278.21" angle="286.14" type="Truck" speed="3.33" pos="10.29" lane="47360624#0_0" slope="0.00"/>
        <vehicle id="27" x="546.95" y="413.10" angle="243.70" type="Car" speed="7.78" pos="1.80" lane="38569906#4_0" slope="0.00"/>
        <vehicle id="28" x="386.78" y="739.35" angle="312.12" type="Car" speed="7.18" pos="15.23" lane="228371100#6_0" slope="0.00"/>
        <vehicle id="29" x="346.25" y="206.55" angle="222.70" type="Sport" speed="7.16" pos="14.57" lane="38569906#10_0" slope="0.00"/>
        <vehicle id="3" x="433.07" y="575.12" angle="192.84" type="Car" speed="5.69" pos="11.71" lane="-47370578#3_0" slope="0.00"/>
        <vehicle id="30" x="570.75" y="414.98" angle="340.82" type="Sport" speed="1.91" pos="8.86" lane=":603087560_0_0" slope="0.00"/>
        <vehicle id="31" x="224.91" y="715.59" angle="68.01" type="Sport" speed="6.49" pos="14.13" lane="47360663#0_0" slope="0.00"/>
        <vehicle id="32" x="488.01" y="386.14" angle="311.20" type="Truck" speed="3.66" pos="10.22" lane="47370609#0_0" slope="0.00"/>
        <vehicle id="33" x="547.13" y="576.48" angle="328.15" type="Sport" speed="6.24" pos="13.37" lane="228371100#1_0" slope="0.00"/>
        <vehicle id="34" x="547.15" y="734.82" angle="274.76" type="Truck" speed="2.95" pos="9.04" lane="47371437#0_0" slope="0.00"/>
        <vehicle id="35" x="480.94" y="293.10" angle="221.67" type="Sport" speed="6.72" pos="13.54" lane="-47370616_0" slope="0.00"/>
        <vehicle id="36" x="613.66" y="444.61" angle="351.75" type="Truck" speed="2.21" pos="3.40" lane=":455956186_3_0" slope="0.00"/>
        <vehicle id="37" x="518.73" y="614.43" angle="143.71" type="Sport" speed="6.79" pos="13.89" lane="-228371100#1_1" slope="0.00"/>
        <vehicle id="38" x="464.22" y="406.96" angle="311.18" type="Sport" speed="0.50" pos="1.60" lane="47370609#1_0" slope="0.00"/>
        <vehicle id="39" x="485.54" y="625.42" angle="39.45" type="Sport" speed="3.81" pos="12.69" lane="-47370593#1_0" slope="0.00"/>
        <vehicle id="4" x="225.74" y="300.06" angle="197.09" type="Car" speed="4.78" pos="10.59" lane="-47425124#1_0" slope="0.00"/>
        <vehicle id="40" x="576.23" y="393.24" angle="50.11" type="Car" speed="4.60" pos="1.43" lane="47368031#2_0" slope="0.00"/>
        <vehicle id="41" x="615.41" y="279.17" angle="311.27" type="Truck" speed="3.37" pos="10.00" lane="47368030#0_0" slope="0.00"/>
        <vehicle id="42" x="598.43" y="493.93" angle="328.14" type="Sport" speed="7.32" pos="16.84" lane="228371100#0_0" slope="0.00"/>
        <vehicle id="43" x="471.78" y="655.92" angle="131.20" type="Sport" speed="5.75" pos="12.03" lane="-228371100#3_0" slope="0.00"/>
        <vehicle id="44" x="548.66" y="436.54" angle="337.21" type="Sport" speed="7.16" pos="14.65" lane="-47370606#4_0" slope="0.00"/>
        <vehicle id="45" x="430.93" y="295.08" angle="353.91" type="Car" speed="3.81" pos="1.96" lane=":446038580_8_0" slope="0.00"/>
        <vehicle id="46" x="259.33" y="439.60" angle="179.74" type="Sport" speed="0.29" pos="1.39" lane="228371138#0_0" slope="0.00"/>
        <vehicle id="47" x="198.37" y="604.54" angle="184.43" type="Truck" speed="0.40" pos="3.50" lane="47360654#0_0" slope="0.00"/>
        <vehicle id="48" x="488.88" y="302.03" angle="221.67" type="Sport" speed="0.49" pos="1.59" lane="-47370616_0" slope="0.00"/>
        <vehicle id="49" x="563.01" y="320.90" angle="131.27" type="Truck" speed="3.61" pos="9.89" lane="-47368030#0_0" slope="0.00"/>
        <vehicle id="6" x="452.78" y="346.51" angle="312.12" type="Truck" speed="3.51" pos="10.43" lane="47370610#0_0" slope="0.00"/>
        <vehicle id="7" x="155.84" y="459.69" angle="197.82" type="Sport" speed="7.18" pos="15.52" lane="47360654#1_0" slope="0.00"/>
        <vehicle id="8" x="454.58" y="415.39" angle="311.18" type="Car" speed="7.21" pos="14.39" lane="47370609#1_0" slope="0.00"/>
        <vehicle id="9" x="509.88" y="308.19" angle="131.84" type="Truck" speed="2.33" pos="7.70" lane="-47368027_0" slope="0.00"/>
    </timestep>
    <timestep time="5.00">
        <vehicle id="0" x="520.49" y="356.64" angle="129.50" type="Truck" speed="4.82" pos="19.06" lane="-47368030#1_0" slope="0.00"/>
        <vehicle id="1" x="381.16" y="708.85" angle="335.07" type="Truck" speed="2.68" pos="1.18" lane=":603046486_1_0" slope="0.00"/>
        <vehicle id="10" x="335.56" y="668.15" angle="246.96" type="Sport" speed="8.46" pos="7.82" lane=":603046501_1_0" slope="0.00"/>
        <vehicle id="11" x="244.51" y="361.10" angle="197.09" type="Truck" speed="4.98" pos="16.00" lane="-47425124#2_0" slope="0.00"/>
        <vehicle id="12" x="330.31" y="662.44" angle="66.64" type="Car" speed="3.71" pos="16.27" lane="-47360669#2_0" slope="0.00"/>
        <vehicle id="13" x="429.03" y="625.04" angle="166.13" type="Car" speed="6.71" pos="19.23" lane="-47370578#4_0" slope="0.00"/>
        <vehicle id="14" x="256.10" y="420.05" angle="191.25" type="Car" speed="8.84" pos="4.29" lane="228371138#1_0" slope="0.00"/>
        <vehicle id="15" x="549.77" y="275.67" angle="130.17" type="Sport" speed="8.08" pos="21.19" lane="38319153#0_0" slope="0.00"/>
        <vehicle id="16" x="375.02" y="708.44" angle="247.80" type="Sport" speed="8.18" pos="2.91" lane="144152790#1_0" slope="0.00"/>
        <vehicle id="17" x="577.16" y="372.50" angle="133.32" type="Truck" speed="4.14" pos="13.83" lane="47368033_0" slope="0.00"/>
        <vehicle id="18" x="192.56" y="583.00" angle="196.32" type="Sport" speed="9.28" pos="25.86" lane="47360654#0_0" slope="0.00"/>
        <vehicle id="19" x="512.73" y="642.58" angle="217.31" type="Truck" speed="4.64" pos="14.37" lane="-47371425#0_0" slope="0.00"/>
        <vehicle id="2" x="597.79" y="434.17" angle="64.26" type="Sport" speed="4.83" pos="16.90" lane="-38569906#1_0" slope="0.00"/>
        <vehicle id="20" x="585.95" y="432.01" angle="244.26" type="Sport" speed="6.87" pos="22.46" lane="38569906#1_0" slope="0.00"/>
        <vehicle id="21" x="218.84" y="465.98" angle="286.77" type="Car" speed="9.09" pos="23.14" lane="228371137#1_0" slope="0.00"/>
        <vehicle id="22" x="337.12" y="775.30" angle="131.33" type="Sport" speed="9.33" pos="23.36" lane="-228371100#7_0" slope="0.00"/>
        <vehicle id="23" x="159.75" y="471.87" angle="197.82" type="Car" speed="1.09" pos="2.73" lane="47360654#1_0" slope="0.00"/>
        <vehicle id="24" x="559.85" y="410.99" angle="321.88" type="Truck" speed="0.00" pos="0.20" lane="47368035_0" slope="0.00"/>
        <vehicle id="25" x="514.37" y="543.86" angle="42.04" type="Truck" speed="3.96" pos="13.21" lane="-47370606#1_0" slope="0.00"/>
        <vehicle id="26" x="197.93" y="279.52" angle="286.14" type="Truck" speed="4.69" pos="14.98" lane="47360624#0_0" slope="0.00"/>
        <vehicle id="27" x="538.59" y="408.98" angle="243.70" type="Car" speed="9.32" pos="11.12" lane="38569906#4_0" slope="0.00"/>
        <vehicle id="28" x="379.24" y="746.16" angle="312.12" type="Car" speed="10.15" pos="25.38" lane="228371100#6_0" slope="0.00"/>
        <vehicle id="29" x="339.49" y="199.23" angle="222.70" type="Sport" speed="9.96" pos="24.53" lane="38569906#10_0" slope="0.00"/>
        <vehicle id="3" x="431.31" y="567.43" angle="192.84" type="Car" speed="7.89" pos="19.60" lane="-47370578#3_0" slope="0.00"/>
        <vehicle id="30" x="570.68" y="415.17" angle="340.82" type="Sport" speed="0.20" pos="9.06" lane=":603087560_0_0" slope="0.00"/>
        <vehicle id="31" x="232.34" y="718.59" angle="68.01" type="Sport" speed="8.01" pos="22.14" lane="47360663#0_0" slope="0.00"/>