<?xml version="1.0" encoding="UTF-8"?>

<!-- generated on 07/26/19 12:09:12 by Eclipse SUMO Version 1.1.0
<configuration xmlns:xsi="http://www.w3.org/2001/XMLSchema-instance" xsi:noNamespaceSchemaLocation="http://sumo.dlr.de/xsd/sumoConfiguration.xsd">

    <input>
        <net-file value="mapNetconvert.net.xml"/>
        <route-files value="./models/random/routes.rou.xml"/>
    </input>

    <output>
        <fcd-output value="C:\Users\Neblis\Desktop\C4R\.\models\random\mapNetconvert.osm"/>
    </output>

</configuration>
-->

<fcd-export xmlns:xsi="http://www.w3.org/2001/XMLSchema-instance" xsi:noNamespaceSchemaLocation="http://sumo.dlr.de/xsd/fcd_file.xsd">
    <timestep time="0.00">
        <vehicle id="0" x="478.15" y="89.53" angle="302.93" type="Car" speed="0.00" pos="1.10" lane="228371106#2_0" slope="0.00"/>
    </timestep>
    <timestep time="1.00">
        <vehicle id="0" x="476.75" y="90.43" angle="302.93" type="Car" speed="1.66" pos="2.76" lane="228371106#2_0" slope="0.00"/>
        <vehicle id="1" x="242.14" y="89.19" angle="277.97" type="Car" speed="0.00" pos="1.10" lane="-38283578#2_0" slope="0.00"/>
    </timestep>
    <timestep time="2.00">
        <vehicle id="0" x="473.73" y="92.39" angle="302.93" type="Car" speed="3.59" pos="6.36" lane="228371106#2_0" slope="0.00"/>
        <vehicle id="1" x="239.24" y="89.60" angle="277.97" type="Car" speed="2.93" pos="4.03" lane="-38283578#2_0" slope="0.00"/>
        <vehicle id="2" x="487.23" y="79.59" angle="124.71" type="Sport" speed="0.00" pos="1.10" lane="-228371106#1_0" slope="0.00"/>
    </timestep>
    <timestep time="3.00">
        <vehicle id="0" x="468.82" y="95.57" angle="302.93" type="Car" speed="5.86" pos="12.22" lane="228371106#2_0" slope="0.00"/>
        <vehicle id="1" x="234.24" y="90.30" angle="277.97" type="Car" speed="5.05" pos="9.08" lane="-38283578#2_0" slope="0.00"/>
        <vehicle id="2" x="489.65" y="77.92" angle="124.71" type="Sport" speed="2.93" pos="4.03" lane="-228371106#1_0" slope="0.00"/>
        <vehicle id="3" x="479.05" y="147.11" angle="133.62" type="Sport" speed="0.00" pos="1.10" lane="-47457278#4_0" slope="0.00"/>
    </timestep>
    <timestep time="4.00">
        <vehicle id="0" x="462.32" y="99.78" angle="302.93" type="Car" speed="7.74" pos="19.96" lane="228371106#2_0" slope="0.00"/>
        <vehicle id="1" x="226.63" y="91.36" angle="277.97" type="Car" speed="7.68" pos="16.75" lane="-38283578#2_0" slope="0.00"/>
        <vehicle id="2" x="493.85" y="75.01" angle="124.71" type="Sport" speed="5.12" pos="9.15" lane="-228371106#1_0" slope="0.00"/>
        <vehicle id="3" x="480.41" y="145.81" angle="133.62" type="Sport" speed="1.88" pos="2.98" lane="-47457278#4_0" slope="0.00"/>
        <vehicle id="4" x="235.55" y="58.13" angle="40.84" type="Car" speed="0.00" pos="1.10" lane="47457295#3_0" slope="0.00"/>
    </timestep>
    <timestep time="5.00">
        <vehicle id="0" x="453.31" y="105.62" angle="302.93" type="Car" speed="10.73" pos="30.69" lane="228371106#2_0" slope="0.00"/>
        <vehicle id="1" x="217.09" y="92.95" angle="280.36" type="Car" speed="9.67" pos="3.23" lane="-38283578#1_0" slope="0.00"/>
        <vehicle id="2" x="499.95" y="70.79" angle="124.71" type="Sport" speed="7.42" pos="16.57" lane="-228371106#1_0" slope="0.00"/>
        <vehicle id="3" x="482.88" y="143.75" angle="120.77" type="Sport" speed="3.27" pos="0.39" lane=":603947323_5_0" slope="0.00"/>
        <vehicle id="4" x="236.96" y="59.76" angle="40.84" type="Car" speed="2.15" pos="3.25" lane="47457295#3_0" slope="0.00"/>
        <vehicle id="5" x="550.31" y="120.69" angle="289.63" type="Sport" speed="0.00" pos="1.10" lane="47457278#0_0" slope="0.00"/>
    </timestep>
    <timestep time="6.00">
        <vehicle id="0" x="442.12" y="112.87" angle="302.93" type="Car" speed="13.34" pos="44.03" lane="228371106#2_0" slope="0.00"/>
        <vehicle id="1" x="205.11" y="95.14" angle="280.36" type="Car" speed="12.18" pos="15.41" lane="-38283578#1_0" slope="0.00"/>
        <vehicle id="2" x="507.16" y="65.79" angle="124.71" type="Sport" speed="8.78" pos="25.35" lane="-228371106#1_0" slope="0.00"/>
        <vehicle id="3" x="485.00" y="144.80" angle="16.10" type="Sport" speed="2.93" pos="0.97" lane=":603947323_7_0" slope="0.00"/>
        <vehicle id="4" x="239.47" y="62.66" angle="40.84" type="Car" speed="3.84" pos="7.09" lane="47457295#3_0" slope="0.00"/>
        <vehicle id="5" x="547.55" y="121.67" angle="289.63" type="Sport" speed="2.93" pos="4.03" lane="47457278#0_0" slope="0.00"/>
        <vehicle id="6" x="381.46" y="168.43" angle="72.38" type="Car" speed="0.00" pos="0.20" lane="-47457265#2_0" slope="0.00"/>
    </timestep>
    <timestep time="7.00">
        <vehicle id="0" x="430.46" y="120.53" angle="304.03" type="Car" speed="13.95" pos="4.84" lane=":603947293_1_0" slope="0.00"/>
        <vehicle id="1" x="193.67" y="97.23" angle="280.36" type="Car" speed="11.62" pos="27.04" lane="-38283578#1_0" slope="0.00"/>
        <vehicle id="2" x="510.27" y="63.63" angle="124.71" type="Sport" speed="3.78" pos="29.13" lane="-228371106#1_0" slope="0.00"/>
        <vehicle id="3" x="483.80" y="147.00" angle="313.62" type="Sport" speed="2.62" pos="1.25" lane="47457278#4_0" slope="0.00"/>
        <vehicle id="4" x="243.32" y="67.12" angle="40.86" type="Car" speed="5.89" pos="1.66" lane=":4447632281_0_0" slope="0.00"/>
        <vehicle id="5" x="543.13" y="123.25" angle="289.63" type="Sport" speed="4.69" pos="8.72" lane="47457278#0_0" slope="0.00"/>
        <vehicle id="6" x="383.65" y="167.82" angle="123.69" type="Car" speed="2.41" pos="2.41" lane=":2370547887_8_0" slope="0.00"/>
        <vehicle id="7" x="447.63" y="447.29" angle="58.90" type="Sport" speed="0.00" pos="1.10" lane="228371125#0_0" slope="0.00"/>
    </timestep>
    <timestep time="8.00">
        <vehicle id="0" x="418.76" y="128.70" angle="305.69" type="Car" speed="14.27" pos="7.55" lane="228371106#3_0" slope="0.00"/>
        <vehicle id="1" x="183.53" y="99.08" angle="280.36" type="Car" speed="10.30" pos="37.34" lane="-38283578#1_0" slope="0.00"/>
        <vehicle id="2" x="512.70" y="64.29" angle="43.24" type="Sport" speed="2.87" pos="0.35" lane=":603947303_7_0" slope="0.00"/>
        <vehicle id="3" x="479.87" y="150.69" angle="311.66" type="Sport" speed="5.38" pos="0.76" lane=":603947294_1_0" slope="0.00"/>
        <vehicle id="4" x="248.36" y="72.99" angle="39.61" type="Car" speed="7.74" pos="0.35" lane=":cluster_451714999_603947387_603947389_2_0" slope="0.00"/>
        <vehicle id="5" x="536.00" y="125.80" angle="289.63" type="Sport" speed="7.58" pos="16.30" lane="47457278#0_0" slope="0.00"/>
        <vehicle id="6" x="383.27" y="165.03" angle="206.36" type="Car" speed="3.04" pos="5.44" lane=":2370547887_8_0" slope="0.00"/>
        <vehicle id="7" x="450.16" y="448.82" angle="58.90" type="Sport" speed="2.96" pos="4.06" lane="228371125#0_0" slope="0.00"/>
        <vehicle id="8" x="365.87" y="189.18" angle="21.36" type="Car" speed="0.00" pos="1.10" lane="454067557#0_0" slope="0.00"/>
    </timestep>
    <timestep time="9.00">
        <vehicle id="0" x="411.23" y="134.10" angle="305.69" type="Car" speed="9.27" pos="16.82" lane="228371106#3_0" slope="0.00"/>
        <vehicle id="1" x="178.32" y="100.03" angle="279.77" type="Car" speed="5.30" pos="0.09" lane=":1576994058_1_0" slope="0.00"/>
        <vehicle id="2" x="511.36" y="66.78" angle="304.70" type="Sport" speed="3.07" pos="1.08" lane="228371106#1_0" slope="0.00"/>
        <vehicle id="3" x="473.81" y="155.97" angle="311.05" type="Sport" speed="8.05" pos="8.81" lane=":603947294_1_0" slope="0.00"/>
        <vehicle id="4" x="254.53" y="81.29" angle="35.46" type="Car" speed="10.34" pos="10.69" lane=":cluster_451714999_603947387_603947389_2_0" slope="0.00"/>
        <vehicle id="5" x="528.05" y="128.18" angle="280.73" type="Sport" speed="8.31" pos="5.53" lane=":603947335_4_0" slope="0.00"/>
        <vehicle id="6" x="379.87" y="161.82" angle="244.77" type="Car" speed="4.86" pos="3.32" lane=":603947243_6_0" slope="0.00"/>
        <vehicle id="7" x="455.10" y="451.80" angle="58.90" type="Sport" speed="5.77" pos="9.82" lane="228371125#0_0" slope="0.00"/>
        <vehicle id="8" x="366.87" y="191.74" angle="21.36" type="Car" speed="2.75" pos="3.85" lane="454067557#0_0" slope="0.00"/>
        <vehicle id="9" x="408.80" y="393.71" angle="210.23" type="Car" speed="0.00" pos="1.10" lane="-447469848#7_0" slope="0.00"/>
    </timestep>
    <timestep time="10.00">
        <vehicle id="0" x="406.17" y="136.83" angle="275.71" type="Car" speed="5.90" pos="1.48" lane=":cluster_2370547882_603947862_1_0" slope="0.00"/>
        <vehicle id="1" x="174.12" y="100.15" angle="263.31" type="Car" speed="4.24" pos="4.34" lane=":1576994058_1_0" slope="0.00"/>
        <vehicle id="2" x="507.52" y="69.43" angle="304.70" type="Sport" speed="4.67" pos="5.75" lane="228371106#1_0" slope="0.00"/>
        <vehicle id="3" x="465.39" y="162.92" angle="309.11" type="Sport" speed="10.91" pos="8.63" lane="47457278#5_0" slope="0.00"/>
        <vehicle id="4" x="261.50" y="91.22" angle="34.90" type="Car" speed="12.13" pos="22.82" lane=":cluster_451714999_603947387_603947389_2_0" slope="0.00"/>
        <vehicle id="5" x="519.97" y="127.69" angle="255.89" type="Sport" speed="8.21" pos="13.74" lane=":603947335_4_0" slope="0.00"/>
        <vehicle id="6" x="374.79" y="161.03" angle="243.28" type="Car" speed="5.27" pos="8.59" lane=":603947243_6_0" slope="0.00"/>
        <vehicle id="7" x="461.88" y="455.88" angle="58.90" type="Sport" speed="7.91" pos="17.73" lane="228371125#0_0" slope="0.00"/>
        <vehicle id="8" x="368.60" y="196.16" angle="21.36" type="Car" speed="4.75" pos="8.59" lane="454067557#0_0" slope="0.00"/>
        <vehicle id="9" x="408.01" y="392.36" angle="210.23" type="Car" speed="1.56" pos="2.66" lane="-447469848#7_0" slope="0.00"/>
    </timestep>
    <timestep time="11.00">
        <vehicle id="0" x="398.98" y="132.36" angle="227.92" type="Car" speed="8.85" pos="7.13" lane=":cluster_2370547882_603947862_8_0" slope="0.00"/>
        <vehicle id="1" x="173.96" y="95.92" angle="142.70" type="Car" speed="5.41" pos="3.91" lane=":1576994058_6_0" slope="0.00"/>
        <vehicle id="11" x="338.57" y="261.75" angle="28.96" type="Car" speed="0.00" pos="1.10" lane="447469848#5_0" slope="0.00"/>
        <vehicle id="2" x="502.01" y="73.25" angle="304.70" type="Sport" speed="6.71" pos="12.46" lane="228371106#1_0" slope="0.00"/>
        <vehicle id="3" x="454.87" y="171.29" angle="300.82" type="Sport" speed="13.50" pos="22.13" lane="47457278#5_0" slope="0.00"/>
        <vehicle id="4" x="269.27" y="102.34" angle="35.12" type="Car" speed="13.57" pos="6.37" lane="447469848#0_0" slope="0.00"/>
        <vehicle id="5" x="512.25" y="124.72" angle="248.58" type="Sport" speed="8.28" pos="7.91" lane="47457278#1_0" slope="0.00"/>
        <vehicle id="6" x="370.45" y="157.66" angle="258.23" type="Car" speed="5.79" pos="3.35" lane=":451715021_0_0" slope="0.00"/>
        <vehicle id="7" x="468.54" y="459.90" angle="58.90" type="Sport" speed="7.77" pos="25.50" lane="228371125#0_0" slope="0.00"/>
        <vehicle id="8" x="371.11" y="202.57" angle="21.36" type="Car" speed="6.88" pos="15.47" lane="454067557#0_0" slope="0.00"/>
        <vehicle id="9" x="405.83" y="388.62" angle="210.23" type="Car" speed="4.33" pos="6.99" lane="-447469848#7_0" slope="0.00"/>
    </timestep>
    <timestep time="12.00">
        <vehicle id="0" x="388.02" y="129.51" angle="264.00" type="Car" speed="11.54" pos="6.95" lane="47457387#1_0" slope="0.00"/>
        <vehicle id="1" x="177.21" y="91.94" angle="137.71" type="Car" speed="5.15" pos="1.95" lane="47457295#0_0" slope="0.00"/>
        <vehicle id="11" x="339.89" y="264.14" angle="28.96" type="Car" speed="2.73" pos="3.83" lane="447469848#5_0" slope="0.00"/>
        <vehicle id="2" x="494.11" y="78.72" angle="304.70" type="Sport" speed="9.61" pos="22.06" lane="228371106#1_0" slope="0.00"/>
        <vehicle id="3" x="441.34" y="170.57" angle="266.96" type="Sport" speed="13.55" pos="35.68" lane="47457278#5_0" slope="0.00"/>
        <vehicle id="4" x="277.14" y="113.72" angle="32.57" type="Car" speed="13.84" pos="2.53" lane=":5446766504_4_0" slope="0.00"/>
        <vehicle id="5" x="505.00" y="129.85" angle="308.78" type="Sport" speed="9.59" pos="8.31" lane=":cluster_603947287_603947325_3_0" slope="0.00"/>
        <vehicle id="6" x="365.24" y="157.53" angle="269.64" type="Car" speed="5.21" pos="3.29" lane="228371106#5_0" slope="0.00"/>
        <vehicle id="7" x="470.39" y="462.27" angle="15.99" type="Sport" speed="3.23" pos="1.76" lane=":603947377_5_0" slope="0.00"/>
        <vehicle id="8" x="374.20" y="210.47" angle="21.36" type="Car" speed="8.48" pos="23.95" lane="454067557#0_0" slope="0.00"/>
        <vehicle id="9" x="402.27" y="382.51" angle="210.23" type="Car" speed="7.06" pos="14.06" lane="-447469848#7_0" slope="0.00"/>
    </timestep>
    <timestep time="13.00">
        <vehicle id="0" x="374.32" y="128.08" angle="264.00" type="Car" speed="13.77" pos="20.72" lane="47457387#1_0" slope="0.00"/>
        <vehicle id="1" x="182.27" y="86.38" angle="137.71" type="Car" speed="7.51" pos="9.47" lane="47457295#0_0" slope="0.00"/>
        <vehicle id="11" x="342.46" y="268.77" angle="28.96" type="Car" speed="5.29" pos="9.12" lane="447469848#5_0" slope="0.00"/>
        <vehicle id="2" x="483.80" y="85.76" angle="303.81" type="Sport" speed="12.49" pos="5.24" lane=":603947292_2_0" slope="0.00"/>
        <vehicle id="3" x="426.94" y="170.86" angle="282.57" type="Sport" speed="14.51" pos="50.19" lane="47457278#5_0" slope="0.00"/>
        <vehicle id="4" x="284.25" y="124.96" angle="31.43" type="Car" speed="13.29" pos="2.88" lane="447469848#1_0" slope="0.00"/>
        <vehicle id="5" x="498.05" y="135.23" angle="307.47" type="Sport" speed="8.79" pos="17.10" lane=":cluster_603947287_603947325_3_0" slope="0.00"/>
        <vehicle id="6" x="357.60" y="157.48" angle="269.64" type="Car" speed="7.63" pos="10.92" lane="228371106#5_0" slope="0.00"/>
        <vehicle id="7" x="468.16" y="463.40" angle="272.78" type="Sport" speed="2.92" pos="2.33" lane=":603947377_8_0" slope="0.00"/>
        <vehicle id="8" x="378.40" y="221.08" angle="22.01" type="Car" speed="11.41" pos="35.37" lane="454067557#0_0" slope="0.00"/>
        <vehicle id="9" x="397.75" y="374.75" angle="210.23" type="Car" speed="8.98" pos="23.04" lane="-447469848#7_0" slope="0.00"/>
    </timestep>
    <timestep time="14.00">
        <vehicle id="0" x="359.84" y="126.55" angle="264.00" type="Car" speed="14.57" pos="35.29" lane="47457387#1_0" slope="0.00"/>
        <vehicle id="1" x="187.69" y="79.22" angle="152.93" type="Car" speed="9.05" pos="18.52" lane="47457295#0_0" slope="0.00"/>
        <vehicle id="11" x="346.21" y="275.55" angle="28.96" type="Car" speed="7.75" pos="16.87" lane="447469848#5_0" slope="0.00"/>
        <vehicle id="2" x="473.17" y="92.75" angle="302.93" type="Sport" speed="12.72" pos="7.03" lane="228371106#2_0" slope="0.00"/>
        <vehicle id="3" x="415.72" y="173.37" angle="282.57" type="Sport" speed="11.50" pos="61.69" lane="47457278#5_0" slope="0.00"/>
        <vehicle id="4" x="290.99" y="135.99" angle="31.43" type="Car" speed="12.92" pos="15.80" lane="447469848#1_0" slope="0.00"/>
        <vehicle id="5" x="490.36" y="141.10" angle="308.53" type="Sport" speed="9.68" pos="3.81" lane=":603947323_2_0" slope="0.00"/>
        <vehicle id="6" x="347.43" y="157.42" angle="269.64" type="Car" speed="10.18" pos="21.10" lane="228371106#5_0" slope="0.00"/>
        <vehicle id="7" x="466.19" y="462.22" angle="238.90" type="Sport" speed="2.30" pos="2.29" lane="-228371125#0_0" slope="0.00"/>
        <vehicle id="8" x="382.81" y="232.01" angle="22.01" type="Car" speed="11.79" pos="47.16" lane="454067557#0_0" slope="0.00"/>
        <vehicle id="9" x="392.20" y="365.22" angle="210.23" type="Car" speed="11.03" pos="34.06" lane="-447469848#7_0" slope="0.00"/>
    </timestep>
    <timestep time="15.00">
        <vehicle id="0" x="349.42" y="125.46" angle="264.00" type="Car" speed="10.48" pos="45.77" lane="47457387#1_0" slope="0.00"/>
        <vehicle id="1" x="192.57" y="69.66" angle="152.93" type="Car" speed="10.74" pos="29.26" lane="47457295#0_0" slope="0.00"/>
        <vehicle id="11" x="351.08" y="284.36" angle="28.96" type="Car" speed="10.06" pos="26.93" lane="447469848#5_0" slope="0.00"/>
        <vehicle id="2" x="461.82" y="100.10" angle="302.93" type="Sport" speed="13.52" pos="20.55" lane="228371106#2_0" slope="0.00"/>
        <vehicle id="3" x="409.37" y="174.78" angle="282.57" type="Sport" speed="6.50" pos="68.20" lane="47457278#5_0" slope="0.00"/>
        <vehicle id="4" x="298.54" y="147.56" angle="45.77" type="Car" speed="13.87" pos="1.65" lane=":cluster_451715001_607472169_11_0" slope="0.00"/>
        <vehicle id="5" x="482.27" y="148.45" angle="313.62" type="Sport" speed="10.93" pos="3.36" lane="47457278#4_0" slope="0.00"/>
        <vehicle id="6" x="335.54" y="157.34" angle="269.64" type="Car" speed="11.89" pos="32.99" lane="228371106#5_0" slope="0.00"/>
        <vehicle id="7" x="462.55" y="460.02" angle="238.90" type="Sport" speed="4.25" pos="6.54" lane="-228371125#0_0" slope="0.00"/>
        <vehicle id="8" x="387.42" y="243.40" angle="22.01" type="Car" speed="12.29" pos="59.44" lane="454067557#0_0" slope="0.00"/>
        <vehicle id="9" x="386.53" y="355.49" angle="210.23" type="Car" speed="11.27" pos="45.33" lane="-447469848#7_0" slope="0.00"/>
    </timestep>
    <timestep time="16.00">
        <vehicle id="0" x="341.98" y="124.68" angle="264.00" type="Car" speed="7.48" pos="53.25" lane="47457387#1_0" slope="0.00"/>
        <vehicle id="1" x="198.31" y="58.43" angle="152.98" type="Car" speed="12.61" pos="6.55" lane="47457295#1_0" slope="0.00"/>
        <vehicle id="11" x="356.59" y="294.89" angle="27.16" type="Car" speed="11.89" pos="38.82" lane="447469848#5_0" slope="0.00"/>
        <vehicle id="16" x="285.48" y="286.04" angle="26.94" type="Sport" speed="0.00" pos="1.10" lane="47457259#5_0" slope="0.00"/>
        <vehicle id="2" x="450.94" y="107.15" angle="302.93" type="Sport" speed="12.96" pos="33.51" lane="228371106#2_0" slope="0.00"/>
        <vehicle id="3" x="401.02" y="176.39" angle="275.52" type="Sport" speed="8.51" pos="5.03" lane=":603947256_4_0" slope="0.00"/>
        <vehicle id="4" x="310.11" y="152.79" angle="79.46" type="Car" speed="12.99" pos="14.64" lane=":cluster_451715001_607472169_11_0" slope="0.00"/>
        <vehicle id="5" x="474.70" y="155.20" angle="311.05" type="Sport" speed="10.14" pos="7.63" lane=":603947294_1_0" slope="0.00"/>
        <vehicle id="6" x="328.43" y="157.30" angle="269.64" type="Car" speed="7.11" pos="40.09" lane="228371106#5_0" slope="0.00"/>
        <vehicle id="7" x="456.52" y="456.39" angle="238.90" type="Sport" speed="7.04" pos="13.57" lane="-228371125#0_0" slope="0.00"/>
        <vehicle id="8" x="392.21" y="255.27" angle="22.01" type="Car" speed="12.80" pos="72.24" lane="454067557#0_0" slope="0.00"/>
        <vehicle id="9" x="380.89" y="345.81" angle="210.23" type="Car" speed="11.20" pos="56.53" lane="-447469848#7_0" slope="0.00"/>
    </timestep>
    <timestep time="17.00">
        <vehicle id="0" x="333.02" y="123.72" angle="263.83" type="Car" speed="9.01" pos="6.06" lane=":607472207_0_0" slope="0.00"/>
        <vehicle id="1" x="206.89" y="50.31" angle="127.18" type="Car" speed="12.04" pos="18.58" lane="47457295#1_0" slope="0.00"/>
        <vehicle id="11" x="363.11" y="307.59" angle="27.16" type="Car" speed="14.27" pos="53.09" lane="447469848#5_0" slope="0.00"/>
        <vehicle id="16" x="286.44" y="287.93" angle="26.97" type="Sport" speed="2.12" pos="0.46" lane=":4447634013_0_0" slope="0.00"/>
        <vehicle id="2" x="441.67" y="113.15" angle="302.93" type="Sport" speed="11.05" pos="44.56" lane="228371106#2_0" slope="0.00"/>
        <vehicle id="3" x="390.56" y="173.84" angle="243.43" type="Sport" speed="10.99" pos="2.21" lane=":2370547887_1_0" slope="0.00"/>
        <vehicle id="4" x="322.98" y="154.01" angle="86.96" type="Car" speed="12.95" pos="27.59" lane=":cluster_451715001_607472169_11_0" slope="0.00"/>
        <vehicle id="5" x="466.32" y="162.16" angle="309.11" type="Sport" speed="10.90" pos="7.44" lane="47457278#5_0" slope="0.00"/>
        <vehicle id="6" x="319.34" y="157.01" angle="266.87" type="Car" speed="9.10" pos="4.75" lane=":cluster_451715001_607472169_7_0" slope="0.00"/>
        <vehicle id="7" x="448.13" y="451.32" angle="238.90" type="Sport" speed="9.80" pos="23.38" lane="-228371125#0_0" slope="0.00"/>
        <vehicle id="8" x="394.46" y="262.72" angle="15.33" type="Car" speed="7.80" pos="80.04" lane="454067557#0_0" slope="0.00"/>
        <vehicle id="9" x="374.93" y="335.58" angle="210.23" type="Car" speed="11.84" pos="68.37" lane="-447469848#7_0" slope="0.00"/>
    </timestep>
    <timestep time="18.00">
        <vehicle id="0" x="322.30" y="122.54" angle="262.69" type="Car" speed="10.78" pos="5.02" lane="47457387#2_0" slope="0.00"/>
        <vehicle id="1" x="217.71" y="46.84" angle="96.01" type="Car" speed="11.75" pos="0.84" lane=":4447632269_0_0" slope="0.00"/>
        <vehicle id="11" x="367.34" y="315.84" angle="27.16" type="Car" speed="9.27" pos="62.36" lane="447469848#5_0" slope="0.00"/>
        <vehicle id="16" x="288.75" y="292.46" angle="27.02" type="Sport" speed="5.09" pos="5.55" lane=":4447634013_0_0" slope="0.00"/>
        <vehicle id="2" x="435.22" y="117.34" angle="302.93" type="Sport" speed="7.69" pos="52.25" lane="228371106#2_0" slope="0.00"/>
        <vehicle id="3" x="379.81" y="171.43" angle="261.93" type="Sport" speed="11.08" pos="1.14" lane=":603947257_0_0" slope="0.00"/>
        <vehicle id="4" x="337.13" y="154.15" angle="89.64" type="Car" speed="14.16" pos="13.03" lane="-228371106#5_0" slope="0.00"/>
        <vehicle id="5" x="458.00" y="168.92" angle="309.11" type="Sport" speed="10.72" pos="18.16" lane="47457278#5_0" slope="0.00"/>
        <vehicle id="6" x="308.31" y="155.72" angle="259.07" type="Car" speed="11.13" pos="15.88" lane=":cluster_451715001_607472169_7_0" slope="0.00"/>
        <vehicle id="7" x="439.94" y="443.65" angle="229.16" type="Sport" speed="11.45" pos="0.50" lane="228371123#0_0" slope="0.00"/>
        <vehicle id="8" x="393.54" y="265.66" angle="310.05" type="Car" speed="3.42" pos="0.07" lane=":603947254_11_0" slope="0.00"/>
        <vehicle id="9" x="369.13" y="325.84" angle="210.77" type="Car" speed="11.33" pos="10.94" lane=":cluster_603947226_603947249_1_0" slope="0.00"/>
    </timestep>
    <timestep time="19.00">
        <vehicle id="0" x="309.65" y="120.68" angle="261.67" type="Car" speed="12.79" pos="17.81" lane="47457387#2_0" slope="0.00"/>
        <vehicle id="11" x="369.42" y="319.89" angle="27.16" type="Car" speed="4.56" pos="66.92" lane="447469848#5_0" slope="0.00"/>
        <vehicle id="16" x="292.31" y="299.45" angle="26.99" type="Sport" speed="7.84" pos="7.16" lane="47457259#6_0" slope="0.00"/>
        <vehicle id="19" x="4.91" y="306.16" angle="182.61" type="Car" speed="0.00" pos="1.10" lane="-230769158#3_0" slope="0.00"/>
        <vehicle id="2" x="432.10" y="120.47" angle="337.58" type="Sport" speed="4.53" pos="3.64" lane=":603947293_0_0" slope="0.00"/>
        <vehicle id="3" x="373.07" y="171.43" angle="282.11" type="Sport" speed="6.83" pos="7.97" lane=":603947257_0_0" slope="0.00"/>
        <vehicle id="4" x="350.94" y="154.24" angle="89.64" type="Car" speed="13.80" pos="26.83" lane="-228371106#5_0" slope="0.00"/>
        <vehicle id="5" x="448.67" y="170.96" angle="266.96" type="Sport" speed="10.19" pos="28.35" lane="47457278#5_0" slope="0.00"/>
        <vehicle id="6" x="296.45" y="150.12" angle="225.38" type="Car" speed="13.41" pos="29.29" lane=":cluster_451715001_607472169_7_0" slope="0.00"/>
        <vehicle id="7" x="431.40" y="436.32" angle="219.65" type="Sport" speed="11.29" pos="7.97" lane=":452406758_1_0" slope="0.00"/>
        <vehicle id="8" x="391.47" y="263.94" angle="207.60" type="Car" speed="2.90" pos="0.63" lane="-454067557#0_0" slope="0.00"/>
        <vehicle id="9" x="364.04" y="316.42" angle="207.16" type="Car" speed="10.71" pos="7.01" lane="-447469848#5_0" slope="0.00"/>
    </timestep>
    <timestep time="20.00">
        <vehicle id="0" x="297.09" y="118.84" angle="261.67" type="Car" speed="12.69" pos="30.50" lane="47457387#2_0" slope="0.00"/>
        <vehicle id="11" x="369.98" y="322.22" angle="353.62" type="Car" speed="2.49" pos="1.02" lane=":cluster_603947226_603947249_11_0" slope="0.00"/>
        <vehicle id="14" x="364.53" y="331.81" angle="300.73" type="Car" speed="0.00" pos="1.10" lane="47457258#0_0" slope="0.00"/>
        <vehicle id="16" x="296.96" y="308.59" angle="26.99" type="Sport" speed="10.25" pos="17.42" lane="47457259#6_0" slope="0.00"/>
        <vehicle id="19" x="4.83" y="304.34" angle="182.61" type="Car" speed="1.82" pos="2.92" lane="-230769158#3_0" slope="0.00"/>
        <vehicle id="2" x="433.78" y="124.30" angle="48.63" type="Sport" speed="4.63" pos="8.27" lane=":603947293_0_0" slope="0.00"/>
        <vehicle id="20" x="479.46" y="400.14" angle="280.33" type="Sport" speed="0.00" pos="1.10" lane="47751741#2_0" slope="0.00"/>
        <vehicle id="3" x="369.86" y="172.25" angle="285.00" type="Sport" speed="3.30" pos="2.63" lane="228371120#0_0" slope="0.00"/>
        <vehicle id="4" x="363.00" y="154.32" angle="89.64" type="Car" speed="12.06" pos="38.89" lane="-228371106#5_0" slope="0.00"/>
        <vehicle id="5" x="438.50" y="170.42" angle="266.96" type="Sport" speed="10.18" pos="38.53" lane="47457278#5_0" slope="0.00"/>
        <vehicle id="6" x="288.87" y="138.65" angle="211.41" type="Car" speed="13.80" pos="11.76" lane="-447469848#1_0" slope="0.00"/>
        <vehicle id="7" x="427.41" y="431.45" angle="219.20" type="Sport" speed="6.29" pos="4.55" lane="228371123#1_0" slope="0.00"/>
        <vehicle id="8" x="390.31" y="259.69" angle="195.32" type="Car" speed="4.41" pos="5.04" lane="-454067557#0_0" slope="0.00"/>
        <vehicle id="9" x="358.94" y="306.48" angle="207.16" type="Car" speed="11.17" pos="18.18" lane="-447469848#5_0" slope="0.00"/>
    </timestep>
    <timestep time="21.00">
        <vehicle id="0" x="289.49" y="117.73" angle="261.67" type="Car" speed="7.69" pos="38.19" lane="47457387#2_0" slope="0.00"/>
        <vehicle id="11" x="367.62" y="322.87" angle="240.95" type="Car" speed="3.21" pos="2.02" lane=":cluster_603947226_603947249_15_0" slope="0.00"/>
        <vehicle id="14" x="362.70" y="332.90" angle="300.73" type="Car" speed="2.13" pos="3.23" lane="47457258#0_0" slope="0.00"/>
        <vehicle id="16" x="302.85" y="320.21" angle="26.80" type="Sport" speed="13.02" pos="6.51" lane="47457259#7_0" slope="0.00"/>
        <vehicle id="19" x="4.66" y="300.60" angle="182.61" type="Car" speed="3.74" pos="6.66" lane="-230769158#3_0" slope="0.00"/>
        <vehicle id="2" x="438.34" y="127.45" angle="56.58" type="Sport" speed="5.55" pos="4.67" lane="47457271#0_0" slope="0.00"/>
        <vehicle id="20" x="476.70" y="400.64" angle="280.33" type="Sport" speed="2.81" pos="3.91" lane="47751741#2_0" slope="0.00"/>
        <vehicle id="21" x="264.54" y="164.77" angle="5.00" type="Car" speed="0.00" pos="1.10" lane="47457259#0_0" slope="0.00"/>
        <vehicle id="3" x="364.95" y="173.63" angle="285.88" type="Sport" speed="5.10" pos="3.72" lane=":4507009373_3_0" slope="0.00"/>
        <vehicle id="4" x="370.05" y="154.48" angle="85.17" type="Car" speed="7.06" pos="1.51" lane=":451715021_7_0" slope="0.00"/>
        <vehicle id="5" x="427.74" y="170.69" angle="282.57" type="Sport" speed="10.85" pos="49.37" lane="47457278#5_0" slope="0.00"/>
        <vehicle id="6" x="281.59" y="126.72" angle="211.41" type="Car" speed="13.98" pos="25.74" lane="-447469848#1_0" slope="0.00"/>
        <vehicle id="7" x="427.55" y="426.36" angle="165.58" type="Sport" speed="5.53" pos="4.13" lane=":cluster_2370547955_2370547960_603947258_603947278_2_0" slope="0.00"/>
        <vehicle id="8" x="387.99" y="253.37" angle="202.00" type="Car" speed="6.74" pos="11.78" lane="-454067557#0_0" slope="0.00"/>
        <vehicle id="9" x="353.73" y="296.32" angle="207.16" type="Car" speed="11.42" pos="29.60" lane="-447469848#5_0" slope="0.00"/>
    </timestep>
    <timestep time="22.00">
        <vehicle id="0" x="286.49" y="117.29" angle="261.67" type="Car" speed="3.03" pos="41.22" lane="47457387#2_0" slope="0.00"/>
        <vehicle id="11" x="365.75" y="319.76" angle="207.16" type="Car" speed="3.70" pos="3.26" lane="-447469848#5_0" slope="0.00"/>
        <vehicle id="14" x="359.48" y="334.82" angle="300.73" type="Car" speed="3.75" pos="6.98" lane="47457258#0_0" slope="0.00"/>
        <vehicle id="16" x="309.09" y="332.57" angle="26.80" type="Sport" speed="13.85" pos="20.35" lane="47457259#7_0" slope="0.00"/>
        <vehicle id="19" x="4.37" y="294.21" angle="182.61" type="Car" speed="6.40" pos="13.06" lane="-230769158#3_0" slope="0.00"/>
        <vehicle id="2" x="444.41" y="131.46" angle="56.58" type="Sport" speed="7.27" pos="11.94" lane="47457271#0_0" slope="0.00"/>
        <vehicle id="20" x="471.46" y="401.59" angle="280.33" type="Sport" speed="5.32" pos="9.23" lane="47751741#2_0" slope="0.00"/>
        <vehicle id="21" x="264.77" y="167.43" angle="5.00" type="Car" speed="2.67" pos="3.77" lane="47457259#0_0" slope="0.00"/>
        <vehicle id="3" x="357.50" y="175.75" angle="285.88" type="Sport" speed="7.74" pos="11.47" lane=":4507009373_3_0" slope="0.00"/>
        <vehicle id="4" x="376.14" y="157.73" angle="30.28" type="Car" speed="7.30" pos="3.27" lane=":451715021_10_0" slope="0.00"/>