<?xml version="1.0" encoding="UTF-8"?>

<!-- generated on 08/17/19 15:03:16 by Eclipse SUMO Version 1.2.0
<configuration xmlns:xsi="http://www.w3.org/2001/XMLSchema-instance" xsi:noNamespaceSchemaLocation="http://sumo.dlr.de/xsd/sumoConfiguration.xsd">

    <input>
        <net-file value="mapNetconvert.net.xml"/>
        <route-files value="models/random/routes.rou.xml"/>
    </input>

    <output>
        <fcd-output value="C:\Users\darkm\Documents\NetBeansProjects\C4R\models\random\mapNetconvert.fcd"/>
    </output>

</configuration>
-->

<fcd-export xmlns:xsi="http://www.w3.org/2001/XMLSchema-instance" xsi:noNamespaceSchemaLocation="http://sumo.dlr.de/xsd/fcd_file.xsd">
    <timestep time="0.00">
        <vehicle id="0" x="635.09" y="426.61" angle="180.09" type="Truck" speed="0.00" pos="3.10" lane="-47457286_0" slope="0.00"/>
    </timestep>
    <timestep time="1.00">
        <vehicle id="0" x="635.08" y="425.76" angle="180.09" type="Truck" speed="0.85" pos="3.95" lane="-47457286_0" slope="0.00"/>
    </timestep>
    <timestep time="2.00">
        <vehicle id="0" x="635.08" y="423.63" angle="180.09" type="Truck" speed="2.13" pos="6.08" lane="-47457286_0" slope="0.00"/>
    </timestep>
    <timestep time="3.00">
        <vehicle id="0" x="635.08" y="420.63" angle="180.09" type="Truck" speed="3.00" pos="9.08" lane="-47457286_0" slope="0.00"/>
    </timestep>
    <timestep time="4.00">
        <vehicle id="0" x="635.07" y="416.42" angle="180.09" type="Truck" speed="4.21" pos="13.29" lane="-47457286_0" slope="0.00"/>
    </timestep>
    <timestep time="5.00">
        <vehicle id="0" x="635.06" y="411.02" angle="180.09" type="Truck" speed="5.40" pos="18.69" lane="-47457286_0" slope="0.00"/>
    </timestep>
    <timestep time="6.00">
        <vehicle id="0" x="635.05" y="405.20" angle="180.09" type="Truck" speed="5.83" pos="24.51" lane="-47457286_0" slope="0.00"/>
        <vehicle id="2" x="202.74" y="233.71" angle="353.20" type="Sport" speed="0.00" pos="1.10" lane="228371130_0" slope="0.00"/>
    </timestep>
    <timestep time="7.00">
        <vehicle id="0" x="633.24" y="399.28" angle="211.69" type="Truck" speed="6.46" pos="5.04" lane=":603947373_0_0" slope="0.00"/>
        <vehicle id="2" x="202.31" y="236.76" angle="349.25" type="Sport" speed="2.97" pos="0.10" lane=":2370547903_0_0" slope="0.00"/>
    </timestep>
    <timestep time="8.00">
        <vehicle id="0" x="627.06" y="397.77" angle="265.07" type="Truck" speed="6.49" pos="2.66" lane="-47457285#0_0" slope="0.00"/>
        <vehicle id="2" x="201.78" y="241.25" angle="5.45" type="Sport" speed="4.56" pos="4.66" lane=":2370547903_0_0" slope="0.00"/>
    </timestep>
    <timestep time="9.00">
        <vehicle id="0" x="619.83" y="398.36" angle="281.76" type="Truck" speed="7.33" pos="9.99" lane="-47457285#0_0" slope="0.00"/>
        <vehicle id="2" x="202.98" y="248.72" angle="359.35" type="Sport" speed="6.09" pos="0.78" lane=":2370547910_0_0" slope="0.00"/>
    </timestep>
    <timestep time="10.00">
        <vehicle id="0" x="611.92" y="400.00" angle="281.76" type="Truck" speed="8.08" pos="18.07" lane="-47457285#0_0" slope="0.00"/>
        <vehicle id="2" x="205.58" y="256.11" angle="29.42" type="Sport" speed="8.07" pos="1.37" lane="228371134#0_0" slope="0.00"/>
    </timestep>
    <timestep time="11.00">
        <vehicle id="0" x="602.93" y="401.88" angle="281.76" type="Truck" speed="9.18" pos="27.25" lane="-47457285#0_0" slope="0.00"/>
        <vehicle id="2" x="209.16" y="265.68" angle="17.05" type="Sport" speed="10.39" pos="7.42" lane=":cluster_2311379306_2370547920_2370547921_2370547923_2370768527_6_0" slope="0.00"/>
    </timestep>
    <timestep time="12.00">
        <vehicle id="0" x="593.38" y="401.90" angle="243.19" type="Truck" speed="10.02" pos="37.27" lane="-47457285#0_0" slope="0.00"/>
        <vehicle id="2" x="211.46" y="277.45" angle="12.61" type="Sport" speed="11.98" pos="19.41" lane=":cluster_2311379306_2370547920_2370547921_2370547923_2370768527_6_0" slope="0.00"/>
        <vehicle id="4" x="383.30" y="174.87" angle="291.98" type="Car" speed="0.00" pos="1.10" lane="-454067558#1_0" slope="0.00"/>
    </timestep>
    <timestep time="13.00">
        <vehicle id="0" x="583.61" y="396.96" angle="243.19" type="Truck" speed="10.95" pos="48.22" lane="-47457285#0_0" slope="0.00"/>
        <vehicle id="2" x="216.94" y="291.26" angle="23.74" type="Sport" speed="14.89" pos="11.07" lane="-668090809#3_0" slope="0.00"/>
        <vehicle id="4" x="380.79" y="175.89" angle="291.98" type="Car" speed="2.71" pos="3.81" lane="-454067558#1_0" slope="0.00"/>
    </timestep>
    <timestep time="14.00">
        <vehicle id="0" x="573.00" y="391.60" angle="243.19" type="Truck" speed="11.89" pos="60.11" lane="-47457285#0_0" slope="0.00"/>
        <vehicle id="2" x="222.71" y="306.77" angle="19.45" type="Sport" speed="16.55" pos="10.58" lane="-668090809#2_0" slope="0.00"/>
        <vehicle id="4" x="375.91" y="177.86" angle="291.98" type="Car" speed="5.26" pos="9.07" lane="-454067558#1_0" slope="0.00"/>
    </timestep>
    <timestep time="15.00">
        <vehicle id="0" x="561.28" y="385.67" angle="243.19" type="Truck" speed="13.13" pos="73.24" lane="-47457285#0_0" slope="0.00"/>
        <vehicle id="2" x="229.81" y="324.21" angle="23.20" type="Sport" speed="18.84" pos="29.42" lane="-668090809#2_0" slope="0.00"/>
        <vehicle id="4" x="370.21" y="180.16" angle="291.98" type="Car" speed="6.14" pos="15.21" lane="-454067558#1_0" slope="0.00"/>
    </timestep>
    <timestep time="16.00">
        <vehicle id="0" x="548.68" y="379.30" angle="243.19" type="Truck" speed="14.12" pos="87.36" lane="-47457285#0_0" slope="0.00"/>
        <vehicle id="2" x="238.24" y="343.86" angle="23.20" type="Sport" speed="21.38" pos="50.80" lane="-668090809#2_0" slope="0.00"/>
        <vehicle id="4" x="366.81" y="180.18" angle="243.42" type="Car" speed="3.69" pos="1.94" lane=":4507009371_5_0" slope="0.00"/>
    </timestep>
    <timestep time="17.00">
        <vehicle id="0" x="539.71" y="377.50" angle="272.58" type="Truck" speed="9.32" pos="9.13" lane=":cluster_603947270_603947272_0_0" slope="0.00"/>
        <vehicle id="2" x="246.69" y="363.68" angle="23.01" type="Sport" speed="21.55" pos="72.35" lane="-668090809#2_0" slope="0.00"/>
        <vehicle id="4" x="367.44" y="177.82" angle="144.06" type="Car" speed="2.79" pos="0.05" lane="454067558#1_0" slope="0.00"/>
    </timestep>
    <timestep time="18.00">
        <vehicle id="0" x="531.76" y="382.66" angle="305.99" type="Truck" speed="9.52" pos="6.98" lane="47751741#1_0" slope="0.00"/>
        <vehicle id="2" x="253.39" y="379.46" angle="23.01" type="Sport" speed="17.15" pos="89.50" lane="-668090809#2_0" slope="0.00"/>
        <vehicle id="4" x="372.30" y="175.86" angle="111.98" type="Car" speed="5.24" pos="5.29" lane="454067558#1_0" slope="0.00"/>
        <vehicle id="6" x="388.85" y="319.30" angle="304.14" type="Truck" speed="0.00" pos="3.10" lane="454067557#2_0" slope="0.00"/>
    </timestep>
    <timestep time="19.00">
        <vehicle id="0" x="522.82" y="388.74" angle="299.48" type="Truck" speed="10.86" pos="17.84" lane="47751741#1_0" slope="0.00"/>
        <vehicle id="2" x="257.89" y="390.75" angle="20.35" type="Sport" speed="12.15" pos="5.83" lane=":cluster_2370547946_2370547949_2370768556_2370768561_2370768564_248492861_13_0" slope="0.00"/>
        <vehicle id="4" x="379.76" y="172.85" angle="111.98" type="Car" speed="8.04" pos="13.33" lane="454067558#1_0" slope="0.00"/>
        <vehicle id="6" x="387.95" y="319.91" angle="304.14" type="Truck" speed="1.09" pos="4.19" lane="454067557#2_0" slope="0.00"/>
    </timestep>
    <timestep time="20.00">
        <vehicle id="0" x="511.38" y="391.91" angle="285.50" type="Truck" speed="11.87" pos="29.71" lane="47751741#1_0" slope="0.00"/>
        <vehicle id="2" x="260.90" y="398.87" angle="20.35" type="Sport" speed="8.67" pos="14.50" lane=":cluster_2370547946_2370547949_2370768556_2370768561_2370768564_248492861_13_0" slope="0.00"/>
        <vehicle id="4" x="382.58" y="171.71" angle="111.98" type="Car" speed="3.04" pos="16.38" lane="454067558#1_0" slope="0.00"/>
        <vehicle id="6" x="386.23" y="321.08" angle="304.14" type="Truck" speed="2.07" pos="6.26" lane="454067557#2_0" slope="0.00"/>
    </timestep>
    <timestep time="21.00">
        <vehicle id="0" x="499.96" y="395.09" angle="285.59" type="Truck" speed="11.85" pos="41.56" lane="47751741#1_0" slope="0.00"/>
        <vehicle id="2" x="262.16" y="403.39" angle="11.99" type="Sport" speed="4.70" pos="19.20" lane=":cluster_2370547946_2370547949_2370768556_2370768561_2370768564_248492861_13_0" slope="0.00"/>
        <vehicle id="4" x="381.54" y="171.60" angle="275.30" type="Car" speed="2.65" pos="2.06" lane=":2370547887_12_0" slope="0.00"/>
        <vehicle id="6" x="383.47" y="322.95" angle="304.14" type="Truck" speed="3.33" pos="9.60" lane="454067557#2_0" slope="0.00"/>
    </timestep>
    <timestep time="22.00">
        <vehicle id="0" x="493.36" y="396.93" angle="285.59" type="Truck" speed="6.85" pos="48.41" lane="47751741#1_0" slope="0.00"/>
        <vehicle id="2" x="263.48" y="409.60" angle="12.00" type="Sport" speed="6.35" pos="5.40" lane=":cluster_2370547946_2370547949_2370768556_2370768561_2370768564_248492861_26_0" slope="0.00"/>
        <vehicle id="4" x="379.19" y="171.05" angle="249.62" type="Car" speed="2.44" pos="1.84" lane=":603947257_1_0" slope="0.00"/>
        <vehicle id="6" x="379.59" y="325.58" angle="304.14" type="Truck" speed="4.69" pos="14.29" lane="454067557#2_0" slope="0.00"/>
    </timestep>
    <timestep time="23.00">
        <vehicle id="0" x="485.46" y="398.99" angle="283.46" type="Truck" speed="8.16" pos="6.13" lane=":603947276_0_0" slope="0.00"/>
        <vehicle id="2" x="263.62" y="418.76" angle="355.20" type="Sport" speed="9.26" pos="14.66" lane=":cluster_2370547946_2370547949_2370768556_2370768561_2370768564_248492861_26_0" slope="0.00"/>
        <vehicle id="4" x="376.61" y="168.01" angle="206.57" type="Car" speed="4.10" pos="0.31" lane=":603947243_1_0" slope="0.00"/>
        <vehicle id="6" x="377.01" y="324.51" angle="240.33" type="Truck" speed="3.46" pos="3.16" lane=":cluster_603947226_603947249_7_0" slope="0.00"/>
    </timestep>
    <timestep time="24.00">
        <vehicle id="0" x="476.53" y="400.67" angle="280.33" type="Truck" speed="9.09" pos="4.08" lane="47751741#2_0" slope="0.00"/>
        <vehicle id="2" x="260.30" y="424.55" angle="319.58" type="Sport" speed="6.94" pos="21.60" lane=":cluster_2370547946_2370547949_2370768556_2370768561_2370768564_248492861_26_0" slope="0.00"/>
        <vehicle id="4" x="374.38" y="162.41" angle="198.90" type="Car" speed="6.03" pos="6.34" lane=":603947243_1_0" slope="0.00"/>
        <vehicle id="6" x="379.19" y="322.00" angle="135.36" type="Truck" speed="3.49" pos="1.98" lane="-454067557#2_0" slope="0.00"/>
        <vehicle id="8" x="380.94" y="171.59" angle="263.28" type="Car" speed="0.00" pos="0.20" lane="47457265#2_0" slope="0.00"/>
    </timestep>
    <timestep time="25.00">
        <vehicle id="0" x="466.28" y="402.54" angle="280.33" type="Truck" speed="10.42" pos="14.49" lane="47751741#2_0" slope="0.00"/>
        <vehicle id="2" x="258.85" y="425.78" angle="301.84" type="Sport" speed="1.94" pos="0.77" lane="23070232#1_0" slope="0.00"/>
        <vehicle id="6" x="382.96" y="319.44" angle="124.17" type="Truck" speed="4.55" pos="6.53" lane="-454067557#2_0" slope="0.00"/>
        <vehicle id="8" x="379.76" y="169.44" angle="175.58" type="Car" speed="2.82" pos="0.10" lane=":603947257_6_0" slope="0.00"/>
    </timestep>
    <timestep time="26.00">
        <vehicle id="0" x="454.70" y="404.65" angle="280.33" type="Truck" speed="11.77" pos="26.26" lane="47751741#2_0" slope="0.00"/>
        <vehicle id="2" x="257.67" y="426.38" angle="296.58" type="Sport" speed="1.32" pos="2.09" lane="23070232#1_0" slope="0.00"/>
        <vehicle id="6" x="387.83" y="316.13" angle="124.17" type="Truck" speed="5.89" pos="12.42" lane="-454067557#2_0" slope="0.00"/>
        <vehicle id="8" x="382.36" y="168.55" angle="82.60" type="Car" speed="2.96" pos="0.91" lane=":2370547887_9_0" slope="0.00"/>
    </timestep>
    <timestep time="27.00">
        <vehicle id="0" x="442.21" y="406.92" angle="280.33" type="Truck" speed="12.70" pos="38.96" lane="47751741#2_0" slope="0.00"/>
        <vehicle id="2" x="255.42" y="427.50" angle="296.58" type="Sport" speed="2.51" pos="4.60" lane="23070232#1_0" slope="0.00"/>
        <vehicle id="6" x="393.66" y="313.04" angle="114.41" type="Truck" speed="6.63" pos="4.46" lane=":603947253_7_0" slope="0.00"/>
        <vehicle id="8" x="387.14" y="169.35" angle="78.34" type="Car" speed="4.85" pos="5.76" lane=":2370547887_9_0" slope="0.00"/>
    </timestep>
    <timestep time="28.00">
        <vehicle id="0" x="438.04" y="414.10" angle="348.36" type="Truck" speed="8.61" pos="47.57" lane="47751741#2_0" slope="0.00"/>
        <vehicle id="2" x="253.39" y="428.52" angle="296.58" type="Sport" speed="2.27" pos="6.87" lane="23070232#1_0" slope="0.00"/>
        <vehicle id="6" x="400.04" y="315.92" angle="45.35" type="Truck" speed="7.56" pos="12.02" lane=":603947253_7_0" slope="0.00"/>
        <vehicle id="8" x="393.53" y="171.76" angle="63.80" type="Car" speed="6.85" pos="12.61" lane=":2370547887_9_0" slope="0.00"/>
    </timestep>
    <timestep time="29.00">
        <vehicle id="0" x="435.67" y="422.96" angle="342.69" type="Truck" speed="9.18" pos="5.33" lane=":cluster_2370547955_2370547960_603947258_603947278_4_0" slope="0.00"/>
        <vehicle id="2" x="251.78" y="429.32" angle="296.58" type="Sport" speed="1.80" pos="8.67" lane="23070232#1_0" slope="0.00"/>
        <vehicle id="6" x="403.29" y="322.90" angle="21.67" type="Truck" speed="7.71" pos="4.64" lane="-47457267_0" slope="0.00"/>
        <vehicle id="8" x="402.01" y="173.21" angle="99.76" type="Car" speed="8.89" pos="8.03" lane=":603947256_6_0" slope="0.00"/>
    </timestep>
    <timestep time="30.00">
        <vehicle id="0" x="431.01" y="430.58" angle="311.74" type="Truck" speed="9.28" pos="14.61" lane=":cluster_2370547955_2370547960_603947258_603947278_4_0" slope="0.00"/>
        <vehicle id="10" x="235.55" y="58.13" angle="40.84" type="Sport" speed="0.00" pos="1.10" lane="47457295#3_0" slope="0.00"/>
        <vehicle id="2" x="249.77" y="430.33" angle="296.58" type="Sport" speed="2.25" pos="10.92" lane="23070232#1_0" slope="0.00"/>
        <vehicle id="6" x="406.61" y="331.26" angle="21.67" type="Truck" speed="9.00" pos="13.64" lane="-47457267_0" slope="0.00"/>
        <vehicle id="8" x="412.90" y="170.71" angle="102.56" type="Car" speed="11.17" pos="7.91" lane="-47457278#5_0" slope="0.00"/>
    </timestep>
    <timestep time="31.00">
        <vehicle id="0" x="424.46" y="425.48" angle="209.41" type="Truck" speed="9.23" pos="23.84" lane=":cluster_2370547955_2370547960_603947258_603947278_4_0" slope="0.00"/>
        <vehicle id="10" x="237.25" y="60.10" angle="40.84" type="Sport" speed="2.59" pos="3.69" lane="47457295#3_0" slope="0.00"/>
        <vehicle id="2" x="247.45" y="431.49" angle="296.58" type="Sport" speed="2.60" pos="13.51" lane="23070232#1_0" slope="0.00"/>
        <vehicle id="6" x="410.20" y="340.30" angle="21.67" type="Truck" speed="9.72" pos="23.37" lane="-47457267_0" slope="0.00"/>
        <vehicle id="8" x="425.51" y="167.90" angle="102.56" type="Car" speed="12.92" pos="20.83" lane="-47457278#5_0" slope="0.00"/>
    </timestep>
    <timestep time="32.00">
        <vehicle id="0" x="420.00" y="417.04" angle="206.05" type="Truck" speed="9.56" pos="1.54" lane="228371123#3_0" slope="0.00"/>
        <vehicle id="10" x="240.81" y="64.22" angle="40.84" type="Sport" speed="5.45" pos="9.14" lane="47457295#3_0" slope="0.00"/>
        <vehicle id="2" x="245.37" y="432.53" angle="296.58" type="Sport" speed="2.33" pos="15.84" lane="23070232#1_0" slope="0.00"/>
        <vehicle id="6" x="415.96" y="349.05" angle="44.23" type="Truck" speed="10.69" pos="34.05" lane="-47457267_0" slope="0.00"/>
        <vehicle id="8" x="439.20" y="167.25" angle="86.98" type="Car" speed="13.83" pos="34.66" lane="-47457278#5_0" slope="0.00"/>
    </timestep>
    <timestep time="33.00">
        <vehicle id="0" x="416.02" y="407.92" angle="203.60" type="Truck" speed="9.94" pos="11.48" lane="228371123#3_0" slope="0.00"/>
        <vehicle id="10" x="245.39" y="69.51" angle="40.86" type="Sport" speed="6.99" pos="4.83" lane=":4447632281_0_0" slope="0.00"/>
        <vehicle id="2" x="243.50" y="433.47" angle="296.58" type="Sport" speed="2.10" pos="17.94" lane="23070232#1_0" slope="0.00"/>
        <vehicle id="6" x="424.20" y="357.52" angle="44.23" type="Truck" speed="11.81" pos="45.87" lane="-47457267_0" slope="0.00"/>
        <vehicle id="8" x="453.32" y="167.99" angle="86.98" type="Car" speed="14.14" pos="48.79" lane="-47457278#5_0" slope="0.00"/>
    </timestep>
    <timestep time="34.00">
        <vehicle id="0" x="411.55" y="404.41" angle="251.17" type="Truck" speed="6.15" pos="5.90" lane=":452056408_0_0" slope="0.00"/>
        <vehicle id="10" x="251.62" y="77.24" angle="37.53" type="Sport" speed="9.93" pos="5.69" lane=":cluster_451714999_603947387_603947389_2_0" slope="0.00"/>
        <vehicle id="2" x="242.05" y="434.19" angle="296.58" type="Sport" speed="1.62" pos="19.55" lane="23070232#1_0" slope="0.00"/>
        <vehicle id="6" x="434.36" y="364.68" angle="64.27" type="Truck" speed="12.63" pos="58.49" lane="-47457267_0" slope="0.00"/>
        <vehicle id="8" x="464.02" y="159.91" angle="129.09" type="Car" speed="13.58" pos="62.38" lane="-47457278#5_0" slope="0.00"/>
    </timestep>
    <timestep time="35.00">
        <vehicle id="0" x="405.88" y="407.06" angle="301.49" type="Truck" speed="6.36" pos="3.21" lane="-333598111#2_0" slope="0.00"/>
        <vehicle id="10" x="257.76" y="85.85" angle="34.90" type="Sport" speed="10.58" pos="16.27" lane=":cluster_451714999_603947387_603947389_2_0" slope="0.00"/>
        <vehicle id="2" x="240.80" y="434.82" angle="296.58" type="Sport" speed="1.40" pos="20.95" lane="23070232#1_0" slope="0.00"/>
        <vehicle id="6" x="446.72" y="371.23" angle="58.56" type="Truck" speed="14.00" pos="72.50" lane="-47457267_0" slope="0.00"/>
        <vehicle id="8" x="474.22" y="151.37" angle="131.04" type="Car" speed="13.31" pos="5.51" lane=":603947294_6_0" slope="0.00"/>
    </timestep>
    <timestep time="36.00">
        <vehicle id="0" x="399.81" y="410.78" angle="301.49" type="Truck" speed="7.12" pos="10.33" lane="-333598111#2_0" slope="0.00"/>
        <vehicle id="10" x="264.27" y="95.20" angle="34.78" type="Sport" speed="11.40" pos="27.67" lane=":cluster_451714999_603947387_603947389_2_0" slope="0.00"/>
        <vehicle id="12" x="353.46" y="422.23" angle="28.29" type="Car" speed="0.00" pos="0.10" lane="47457259#9_0" slope="0.00"/>
        <vehicle id="2" x="239.18" y="435.63" angle="296.58" type="Sport" speed="1.81" pos="22.76" lane="23070232#1_0" slope="0.00"/>
    </timestep>
    <timestep time="37.00">
        <vehicle id="10" x="270.47" y="104.04" angle="35.12" type="Sport" speed="10.80" pos="8.45" lane="447469848#0_0" slope="0.00"/>
        <vehicle id="12" x="355.12" y="424.54" angle="35.69" type="Car" speed="2.84" pos="2.84" lane=":cluster_4447634067_603947234_4_0" slope="0.00"/>
        <vehicle id="2" x="237.51" y="436.46" angle="296.58" type="Sport" speed="1.87" pos="24.63" lane="23070232#1_0" slope="0.00"/>
    </timestep>
    <timestep time="38.00">
        <vehicle id="10" x="276.85" y="113.27" angle="32.57" type="Sport" speed="11.22" pos="2.00" lane=":5446766504_4_0" slope="0.00"/>
        <vehicle id="12" x="359.32" y="428.09" angle="69.56" type="Car" speed="5.63" pos="8.46" lane=":cluster_4447634067_603947234_4_0" slope="0.00"/>
        <vehicle id="2" x="236.24" y="437.10" angle="296.58" type="Sport" speed="1.41" pos="26.04" lane="23070232#1_0" slope="0.00"/>
    </timestep>
    <timestep time="39.00">
        <vehicle id="10" x="282.93" y="122.80" angle="32.17" type="Sport" speed="11.29" pos="0.35" lane="447469848#1_0" slope="0.00"/>
        <vehicle id="12" x="365.71" y="426.78" angle="119.15" type="Car" speed="6.83" pos="2.16" lane="333598111#1_0" slope="0.00"/>
        <vehicle id="2" x="234.13" y="438.15" angle="296.58" type="Sport" speed="2.36" pos="28.40" lane="23070232#1_0" slope="0.00"/>
    </timestep>
    <timestep time="40.00">
        <vehicle id="10" x="288.20" y="131.42" angle="31.43" type="Sport" speed="10.11" pos="10.46" lane="447469848#1_0" slope="0.00"/>
        <vehicle id="12" x="372.90" y="422.76" angle="119.15" type="Car" speed="8.24" pos="10.40" lane="333598111#1_0" slope="0.00"/>
        <vehicle id="2" x="231.80" y="439.32" angle="296.58" type="Sport" speed="2.61" pos="31.01" lane="23070232#1_0" slope="0.00"/>
    </timestep>
    <timestep time="41.00">
        <vehicle id="10" x="293.43" y="139.97" angle="31.43" type="Sport" speed="10.02" pos="20.48" lane="447469848#1_0" slope="0.00"/>
        <vehicle id="12" x="378.22" y="419.80" angle="119.15" type="Car" speed="6.09" pos="16.49" lane="333598111#1_0" slope="0.00"/>
        <vehicle id="2" x="229.75" y="440.35" angle="296.82" type="Sport" speed="2.30" pos="1.54" lane=":248952703_5_0" slope="0.00"/>
    </timestep>
    <timestep time="42.00">
        <vehicle id="10" x="296.67" y="145.29" angle="31.43" type="Sport" speed="6.23" pos="26.70" lane="447469848#1_0" slope="0.00"/>
        <vehicle id="12" x="384.59" y="416.16" angle="120.34" type="Car" speed="7.35" pos="3.51" lane=":603947225_4_0" slope="0.00"/>
        <vehicle id="14" x="317.66" y="265.20" angle="115.49" type="Car" speed="0.00" pos="1.10" lane="47751705#1_0" slope="0.00"/>
        <vehicle id="2" x="228.26" y="441.11" angle="296.82" type="Sport" speed="1.67" pos="3.21" lane=":248952703_5_0" slope="0.00"/>
    </timestep>
    <timestep time="43.00">
        <vehicle id="10" x="299.37" y="150.79" angle="24.64" type="Sport" speed="6.13" pos="4.81" lane=":cluster_451715001_607472169_13_0" slope="0.00"/>
        <vehicle id="12" x="391.72" y="411.98" angle="120.91" type="Car" speed="8.27" pos="0.50" lane="333598111#2_0" slope="0.00"/>
        <vehicle id="14" x="320.11" y="264.03" angle="115.49" type="Car" speed="2.71" pos="3.81" lane="47751705#1_0" slope="0.00"/>
        <vehicle id="2" x="226.14" y="442.18" angle="296.82" type="Sport" speed="2.37" pos="5.58" lane=":248952703_5_0" slope="0.00"/>
    </timestep>
    <timestep time="44.00">
        <vehicle id="10" x="298.59" y="155.77" angle="310.91" type="Sport" speed="5.48" pos="3.61" lane=":cluster_451715001_607472169_23_0" slope="0.00"/>
        <vehicle id="12" x="398.10" y="408.07" angle="121.47" type="Car" speed="7.48" pos="7.98" lane="333598111#2_0" slope="0.00"/>
        <vehicle id="14" x="324.35" y="262.01" angle="115.49" type="Car" speed="4.69" pos="8.50" lane="47751705#1_0" slope="0.00"/>
        <vehicle id="2" x="223.83" y="443.35" angle="296.82" type="Sport" speed="2.59" pos="8.17" lane=":248952703_5_0" slope="0.00"/>
    </timestep>
    <timestep time="45.00">
        <vehicle id="10" x="293.22" y="157.66" angle="278.59" type="Sport" speed="5.91" pos="9.52" lane=":cluster_451715001_607472169_23_0" slope="0.00"/>
        <vehicle id="12" x="404.44" y="404.19" angle="121.47" type="Car" speed="7.43" pos="15.41" lane="333598111#2_0" slope="0.00"/>
        <vehicle id="14" x="328.56" y="259.96" angle="117.83" type="Car" speed="4.69" pos="0.30" lane=":603947241_4_0" slope="0.00"/>
        <vehicle id="15" x="298.87" y="222.27" angle="15.17" type="Sport" speed="0.00" pos="1.10" lane="47457294#0_0" slope="0.00"/>
        <vehicle id="2" x="221.65" y="444.45" angle="296.82" type="Sport" speed="2.44" pos="10.61" lane=":248952703_5_0" slope="0.00"/>
    </timestep>
    <timestep time="46.00">
        <vehicle id="10" x="288.72" y="157.83" angle="270.29" type="Sport" speed="4.51" pos="3.53" lane="230769158#0_0" slope="0.00"/>
        <vehicle id="12" x="410.95" y="400.76" angle="110.58" type="Car" speed="7.38" pos="4.44" lane=":452056408_7_0" slope="0.00"/>
        <vehicle id="14" x="331.46" y="256.62" angle="162.24" type="Car" speed="4.60" pos="4.90" lane=":603947241_4_0" slope="0.00"/>
        <vehicle id="15" x="299.53" y="224.73" angle="15.17" type="Sport" speed="2.54" pos="3.64" lane="47457294#0_0" slope="0.00"/>
        <vehicle id="2" x="219.45" y="445.56" angle="296.82" type="Sport" speed="2.47" pos="13.08" lane=":248952703_5_0" slope="0.00"/>
    </timestep>
    <timestep time="47.00">
        <vehicle id="10" x="283.22" y="157.85" angle="270.22" type="Sport" speed="5.50" pos="3.03" lane=":4447633623_2_0" slope="0.00"/>
        <vehicle id="12" x="419.20" y="401.44" angle="65.16" type="Car" speed="8.60" pos="0.07" lane="228371124#0_0" slope="0.00"/>
        <vehicle id="14" x="330.90" y="252.04" angle="197.78" type="Car" speed="4.71" pos="1.35" lane="-447469848#4_0" slope="0.00"/>
        <vehicle id="15" x="300.89" y="229.75" angle="15.17" type="Sport" speed="5.20" pos="8.85" lane="47457294#0_0" slope="0.00"/>
        <vehicle id="2" x="217.13" y="446.74" angle="297.07" type="Sport" speed="2.61" pos="0.72" lane="23070232#2_0" slope="0.00"/>
    </timestep>
    <timestep time="48.00">
        <vehicle id="10" x="277.77" y="157.87" angle="270.22" type="Sport" speed="5.44" pos="8.47" lane=":4447633623_2_0" slope="0.00"/>
        <vehicle id="12" x="425.69" y="405.84" angle="55.82" type="Car" speed="7.83" pos="7.90" lane="228371124#0_0" slope="0.00"/>
        <vehicle id="14" x="328.67" y="245.09" angle="197.78" type="Car" speed="7.30" pos="8.65" lane="-447469848#4_0" slope="0.00"/>
        <vehicle id="15" x="302.98" y="237.43" angle="15.17" type="Sport" speed="7.97" pos="16.81" lane="47457294#0_0" slope="0.00"/>
        <vehicle id="16" x="4.91" y="306.16" angle="182.61" type="Sport" speed="0.00" pos="1.10" lane="-230769158#3_0" slope="0.00"/>
        <vehicle id="2" x="215.56" y="447.75" angle="305.16" type="Sport" speed="1.88" pos="1.30" lane=":248952704_3_0" slope="0.00"/>
    </timestep>
    <timestep time="49.00">
        <vehicle id="10" x="272.10" y="157.90" angle="270.49" type="Sport" speed="5.67" pos="3.78" lane="230769158#1_0" slope="0.00"/>
        <vehicle id="12" x="431.08" y="407.52" angle="94.32" type="Car" speed="5.86" pos="4.80" lane=":cluster_2370547955_2370547960_603947258_603947278_6_0" slope="0.00"/>
        <vehicle id="14" x="325.87" y="236.35" angle="197.78" type="Car" speed="9.17" pos="17.82" lane="-447469848#4_0" slope="0.00"/>
        <vehicle id="15" x="305.58" y="247.03" angle="15.17" type="Sport" speed="9.95" pos="26.76" lane="47457294#0_0" slope="0.00"/>
        <vehicle id="16" x="4.83" y="304.35" angle="182.61" type="Sport" speed="1.81" pos="2.91" lane="-230769158#3_0" slope="0.00"/>
        <vehicle id="2" x="213.99" y="449.40" angle="328.26" type="Sport" speed="2.32" pos="3.62" lane=":248952704_3_0" slope="0.00"/>
    </timestep>
    <timestep time="50.00">
        <vehicle id="10" x="265.92" y="157.85" angle="268.97" type="Sport" speed="6.19" pos="3.76" lane=":603947230_1_0" slope="0.00"/>
        <vehicle id="12" x="435.80" y="402.98" angle="144.89" type="Car" speed="6.70" pos="2.47" lane="47457266#1_0" slope="0.00"/>
        <vehicle id="14" x="322.17" y="224.81" angle="197.78" type="Car" speed="12.12" pos="29.94" lane="-447469848#4_0" slope="0.00"/>
        <vehicle id="15" x="308.22" y="256.75" angle="15.17" type="Sport" speed="10.07" pos="36.83" lane="47457294#0_0" slope="0.00"/>
        <vehicle id="16" x="4.62" y="299.85" angle="182.61" type="Sport" speed="4.51" pos="7.42" lane="-230769158#3_0" slope="0.00"/>
        <vehicle id="2" x="213.42" y="451.71" angle="356.34" type="Sport" speed="2.45" pos="6.07" lane=":248952704_3_0" slope="0.00"/>
    </timestep>
    <timestep time="51.00">
        <vehicle id="10" x="259.05" y="157.73" angle="268.97" type="Sport" speed="6.87" pos="10.63" lane=":603947230_1_0" slope="0.00"/>
        <vehicle id="12" x="442.69" y="398.02" angle="118.27" type="Car" speed="8.68" pos="11.15" lane="47457266#1_0" slope="0.00"/>
        <vehicle id="14" x="318.57" y="213.46" angle="196.46" type="Car" speed="11.90" pos="1.57" lane=":603947228_1_0" slope="0.00"/>
        <vehicle id="15" x="309.55" y="261.67" angle="15.17" type="Sport" speed="5.10" pos="41.93" lane="47457294#0_0" slope="0.00"/>
        <vehicle id="16" x="4.30" y="292.78" angle="182.61" type="Sport" speed="7.08" pos="14.49" lane="-230769158#3_0" slope="0.00"/>
        <vehicle id="17" x="270.38" y="256.69" angle="10.54" type="Truck" speed="0.00" pos="3.10" lane="47457259#4_0" slope="0.00"/>
        <vehicle id="2" x="214.06" y="454.07" angle="19.53" type="Sport" speed="2.47" pos="8.55" lane=":248952704_3_0" slope="0.00"/>
    </timestep>
    <timestep time="52.00">
        <vehicle id="10" x="254.90" y="157.54" angle="267.24" type="Sport" speed="4.17" pos="3.66" lane="230769158#2_0" slope="0.00"/>
        <vehicle id="12" x="451.58" y="393.23" angle="118.27" type="Car" speed="10.10" pos="21.25" lane="47457266#1_0" slope="0.00"/>
        <vehicle id="14" x="315.49" y="202.93" angle="195.08" type="Car" speed="10.97" pos="1.44" lane="-447469848#3_0" slope="0.00"/>
        <vehicle id="15" x="311.53" y="265.50" angle="48.47" type="Sport" speed="4.41" pos="3.54" lane=":603947239_0_0" slope="0.00"/>
        <vehicle id="16" x="4.15" y="285.82" angle="180.82" type="Sport" speed="6.96" pos="21.46" lane="-230769158#3_0" slope="0.00"/>
        <vehicle id="17" x="271.00" y="257.89" angle="21.50" type="Truck" speed="1.35" pos="4.45" lane="47457259#4_0" slope="0.00"/>