<?xml version="1.0" encoding="UTF-8"?>

<!-- generated on 08/23/19 12:28:02 by Eclipse SUMO Version 1.2.0
<configuration xmlns:xsi="http://www.w3.org/2001/XMLSchema-instance" xsi:noNamespaceSchemaLocation="http://sumo.dlr.de/xsd/sumoConfiguration.xsd">

    <input>
        <net-file value="mapNetconvert.net.xml"/>
        <route-files value="models/random/routes.rou.xml"/>
    </input>

    <output>
        <fcd-output value="C:\Users\darkm\Documents\Mogen2\models\random\mapNetconvert.fcd"/>
    </output>

</configuration>
-->

<fcd-export xmlns:xsi="http://www.w3.org/2001/XMLSchema-instance" xsi:noNamespaceSchemaLocation="http://sumo.dlr.de/xsd/fcd_file.xsd">
    <timestep time="0.00">
        <vehicle id="0" x="324.65" y="635.92" angle="68.10" type="Truck" speed="0.00" pos="3.10" lane="228373950#1_0" slope="0.00"/>
    </timestep>
    <timestep time="1.00">
        <vehicle id="0" x="325.82" y="636.39" angle="68.10" type="Truck" speed="1.26" pos="4.36" lane="228373950#1_0" slope="0.00"/>
    </timestep>
    <timestep time="2.00">
        <vehicle id="0" x="327.70" y="637.15" angle="68.10" type="Truck" speed="2.04" pos="6.40" lane="228373950#1_0" slope="0.00"/>
    </timestep>
    <timestep time="3.00">
        <vehicle id="0" x="330.82" y="638.40" angle="68.10" type="Truck" speed="3.36" pos="9.75" lane="228373950#1_0" slope="0.00"/>
        <vehicle id="1" x="510.12" y="561.89" angle="316.14" type="Truck" speed="0.00" pos="3.10" lane="-229073333_0" slope="0.00"/>
    </timestep>
    <timestep time="4.00">
        <vehicle id="0" x="334.86" y="640.02" angle="68.10" type="Truck" speed="4.36" pos="14.11" lane="228373950#1_0" slope="0.00"/>
        <vehicle id="1" x="509.38" y="562.67" angle="316.14" type="Truck" speed="1.07" pos="4.17" lane="-229073333_0" slope="0.00"/>
    </timestep>
    <timestep time="5.00">
        <vehicle id="0" x="340.06" y="642.11" angle="68.10" type="Truck" speed="5.60" pos="19.71" lane="228373950#1_0" slope="0.00"/>
        <vehicle id="1" x="507.95" y="564.16" angle="316.14" type="Truck" speed="2.07" pos="6.24" lane="-229073333_0" slope="0.00"/>
    </timestep>
    <timestep time="6.00">
        <vehicle id="0" x="346.30" y="644.62" angle="68.10" type="Truck" speed="6.73" pos="26.44" lane="228373950#1_0" slope="0.00"/>
        <vehicle id="1" x="506.16" y="566.02" angle="316.14" type="Truck" speed="2.58" pos="8.82" lane="-229073333_0" slope="0.00"/>
        <vehicle id="2" x="614.84" y="454.45" angle="148.38" type="Sport" speed="0.00" pos="1.10" lane="228371097_0" slope="0.00"/>
    </timestep>
    <timestep time="7.00">
        <vehicle id="0" x="353.26" y="647.42" angle="68.10" type="Truck" speed="7.50" pos="33.94" lane="228373950#1_0" slope="0.00"/>
        <vehicle id="1" x="504.79" y="567.44" angle="316.14" type="Truck" speed="1.97" pos="10.79" lane="-229073333_0" slope="0.00"/>
        <vehicle id="2" x="616.38" y="451.95" angle="148.38" type="Sport" speed="2.94" pos="4.04" lane="228371097_0" slope="0.00"/>
    </timestep>
    <timestep time="8.00">
        <vehicle id="0" x="361.10" y="650.57" angle="68.10" type="Truck" speed="8.45" pos="42.39" lane="228373950#1_0" slope="0.00"/>
        <vehicle id="1" x="503.50" y="569.07" angle="319.92" type="Truck" speed="2.09" pos="12.89" lane="-229073333_0" slope="0.00"/>
        <vehicle id="2" x="619.03" y="447.14" angle="151.64" type="Sport" speed="5.49" pos="4.61" lane=":4577505905_1_0" slope="0.00"/>
    </timestep>
    <timestep time="9.00">
        <vehicle id="0" x="369.68" y="654.02" angle="68.10" type="Truck" speed="9.25" pos="51.63" lane="228373950#1_0" slope="0.00"/>
        <vehicle id="1" x="502.35" y="571.15" angle="331.02" type="Truck" speed="2.38" pos="15.27" lane="-229073333_0" slope="0.00"/>
        <vehicle id="2" x="613.44" y="445.08" angle="253.72" type="Sport" speed="6.34" pos="5.91" lane=":455956186_0_0" slope="0.00"/>
        <vehicle id="3" x="447.07" y="430.90" angle="42.13" type="Car" speed="0.00" pos="1.10" lane="47370578#2_0" slope="0.00"/>
    </timestep>
    <timestep time="10.00">
        <vehicle id="0" x="378.99" y="657.77" angle="68.08" type="Truck" speed="10.05" pos="0.55" lane="228373950#2_0" slope="0.00"/>
        <vehicle id="1" x="501.19" y="573.23" angle="331.02" type="Truck" speed="2.38" pos="17.65" lane="-229073333_0" slope="0.00"/>
        <vehicle id="2" x="607.57" y="442.44" angle="244.13" type="Sport" speed="6.45" pos="3.62" lane=":2397425909_0_0" slope="0.00"/>
        <vehicle id="3" x="449.00" y="433.03" angle="42.13" type="Car" speed="2.88" pos="3.98" lane="47370578#2_0" slope="0.00"/>
    </timestep>
    <timestep time="11.00">
        <vehicle id="0" x="389.33" y="661.92" angle="68.10" type="Truck" speed="11.14" pos="11.69" lane="228373950#2_0" slope="0.00"/>
        <vehicle id="1" x="500.10" y="575.20" angle="331.02" type="Truck" speed="2.25" pos="19.90" lane="-229073333_0" slope="0.00"/>
        <vehicle id="2" x="600.15" y="438.86" angle="244.26" type="Sport" speed="8.24" pos="6.69" lane="38569906#1_0" slope="0.00"/>
        <vehicle id="3" x="452.37" y="436.76" angle="42.13" type="Car" speed="5.03" pos="9.00" lane="47370578#2_0" slope="0.00"/>
    </timestep>
    <timestep time="12.00">
        <vehicle id="0" x="400.96" y="663.97" angle="97.28" type="Truck" speed="12.19" pos="23.88" lane="228373950#2_0" slope="0.00"/>
        <vehicle id="1" x="498.93" y="577.32" angle="331.02" type="Truck" speed="2.42" pos="22.32" lane="-229073333_0" slope="0.00"/>
        <vehicle id="2" x="590.07" y="434.00" angle="244.26" type="Sport" speed="11.19" pos="17.88" lane="38569906#1_0" slope="0.00"/>
        <vehicle id="3" x="457.71" y="442.66" angle="42.13" type="Car" speed="7.97" pos="16.97" lane="47370578#2_0" slope="0.00"/>
        <vehicle id="4" x="384.86" y="688.84" angle="247.27" type="Car" speed="0.00" pos="1.10" lane="47360669#0_0" slope="0.00"/>
    </timestep>
    <timestep time="13.00">
        <vehicle id="0" x="413.32" y="660.64" angle="125.93" type="Truck" speed="13.12" pos="37.00" lane="228373950#2_0" slope="0.00"/>
        <vehicle id="1" x="497.89" y="579.19" angle="331.02" type="Truck" speed="2.14" pos="24.46" lane="-229073333_0" slope="0.00"/>
        <vehicle id="2" x="578.65" y="428.48" angle="244.11" type="Sport" speed="12.68" pos="2.81" lane=":cluster_603087581_603642959_1_0" slope="0.00"/>
        <vehicle id="3" x="464.87" y="450.37" angle="43.64" type="Car" speed="10.52" pos="27.49" lane="47370578#2_0" slope="0.00"/>
        <vehicle id="4" x="382.81" y="687.98" angle="247.27" type="Car" speed="2.21" pos="3.31" lane="47360669#0_0" slope="0.00"/>
    </timestep>
    <timestep time="14.00">
        <vehicle id="0" x="421.24" y="654.90" angle="125.93" type="Truck" speed="9.78" pos="46.78" lane="228373950#2_0" slope="0.00"/>
        <vehicle id="1" x="496.83" y="581.12" angle="331.02" type="Truck" speed="2.20" pos="26.66" lane="-229073333_0" slope="0.00"/>
        <vehicle id="2" x="567.27" y="422.96" angle="244.11" type="Sport" speed="12.65" pos="15.46" lane=":cluster_603087581_603642959_1_0" slope="0.00"/>
        <vehicle id="3" x="474.07" y="460.02" angle="43.64" type="Car" speed="13.33" pos="40.82" lane="47370578#2_0" slope="0.00"/>
        <vehicle id="4" x="378.94" y="686.36" angle="247.27" type="Car" speed="4.20" pos="7.52" lane="47360669#0_0" slope="0.00"/>
    </timestep>
    <timestep time="15.00">
        <vehicle id="0" x="425.31" y="651.96" angle="125.93" type="Truck" speed="5.02" pos="51.81" lane="228373950#2_0" slope="0.00"/>
        <vehicle id="1" x="495.69" y="583.17" angle="331.02" type="Truck" speed="2.35" pos="29.01" lane="-229073333_0" slope="0.00"/>
        <vehicle id="2" x="555.21" y="417.12" angle="244.17" type="Sport" speed="13.39" pos="5.85" lane=":603087580_1_0" slope="0.00"/>
        <vehicle id="3" x="484.16" y="470.61" angle="43.64" type="Car" speed="14.63" pos="55.45" lane="47370578#2_0" slope="0.00"/>
        <vehicle id="4" x="372.93" y="683.84" angle="247.27" type="Car" speed="6.51" pos="14.03" lane="47360669#0_0" slope="0.00"/>
        <vehicle id="5" x="557.20" y="548.15" angle="148.14" type="Sport" speed="0.00" pos="1.10" lane="-228371100#0_0" slope="0.00"/>
    </timestep>
    <timestep time="16.00">
        <vehicle id="0" x="430.24" y="649.00" angle="118.72" type="Truck" speed="5.77" pos="4.64" lane=":368243972_5_0" slope="0.00"/>
        <vehicle id="1" x="494.83" y="584.94" angle="333.13" type="Truck" speed="1.97" pos="30.98" lane="-229073333_0" slope="0.00"/>
        <vehicle id="2" x="542.97" y="411.14" angle="243.70" type="Sport" speed="13.63" pos="6.24" lane="38569906#4_0" slope="0.00"/>
        <vehicle id="3" x="491.08" y="477.86" angle="43.64" type="Car" speed="10.02" pos="65.47" lane="47370578#2_0" slope="0.00"/>
        <vehicle id="4" x="364.33" y="680.24" angle="247.30" type="Car" speed="9.33" pos="6.25" lane=":2370547827_0_0" slope="0.00"/>
        <vehicle id="5" x="560.94" y="548.19" angle="148.13" type="Sport" speed="1.88" pos="2.98" lane="-228371100#0_1" slope="0.00"/>
    </timestep>
    <timestep time="17.00">
        <vehicle id="0" x="436.86" y="649.65" angle="63.70" type="Truck" speed="7.13" pos="11.76" lane=":368243972_5_0" slope="0.00"/>
        <vehicle id="1" x="493.88" y="587.11" angle="336.26" type="Truck" speed="2.37" pos="33.35" lane="-229073333_0" slope="0.00"/>
        <vehicle id="2" x="530.75" y="405.10" angle="243.70" type="Sport" speed="13.63" pos="19.87" lane="38569906#4_0" slope="0.00"/>
        <vehicle id="3" x="493.25" y="484.13" angle="18.91" type="Car" speed="6.65" pos="72.11" lane="47370578#2_0" slope="0.00"/>
        <vehicle id="4" x="353.61" y="675.75" angle="247.28" type="Car" speed="11.62" pos="3.46" lane="47360669#1_0" slope="0.00"/>
        <vehicle id="5" x="563.20" y="544.55" angle="148.13" type="Sport" speed="4.28" pos="7.26" lane="-228371100#0_1" slope="0.00"/>
    </timestep>
    <timestep time="18.00">
        <vehicle id="0" x="441.95" y="655.30" angle="41.70" type="Truck" speed="7.61" pos="7.41" lane="47425143#0_0" slope="0.00"/>
        <vehicle id="1" x="492.86" y="589.44" angle="336.26" type="Truck" speed="2.54" pos="35.89" lane="-229073333_0" slope="0.00"/>
        <vehicle id="2" x="520.25" y="398.22" angle="222.08" type="Sport" speed="12.75" pos="32.62" lane="38569906#4_0" slope="0.00"/>
        <vehicle id="3" x="492.00" y="487.18" angle="294.18" type="Car" speed="4.18" pos="2.32" lane=":603095508_11_0" slope="0.00"/>
        <vehicle id="4" x="340.84" y="670.39" angle="246.96" type="Car" speed="13.86" pos="2.09" lane=":603046501_1_0" slope="0.00"/>
        <vehicle id="5" x="567.03" y="538.39" angle="148.13" type="Sport" speed="7.26" pos="14.52" lane="-228371100#0_1" slope="0.00"/>
        <vehicle id="6" x="458.92" y="329.25" angle="221.62" type="Truck" speed="0.00" pos="3.10" lane="38569906#6_0" slope="0.00"/>
    </timestep>
    <timestep time="19.00">
        <vehicle id="0" x="446.61" y="660.52" angle="41.70" type="Truck" speed="6.99" pos="14.40" lane="47425143#0_0" slope="0.00"/>
        <vehicle id="1" x="491.86" y="591.70" angle="336.26" type="Truck" speed="2.48" pos="38.37" lane="-229073333_0" slope="0.00"/>
        <vehicle id="2" x="513.33" y="390.56" angle="222.08" type="Sport" speed="10.32" pos="42.94" lane="38569906#4_0" slope="0.00"/>
        <vehicle id="3" x="489.92" y="484.28" angle="199.14" type="Car" speed="3.98" pos="0.74" lane="-47370578#2_0" slope="0.00"/>
        <vehicle id="4" x="328.09" y="664.96" angle="246.67" type="Car" speed="13.85" pos="1.56" lane="47360669#2_0" slope="0.00"/>
        <vehicle id="5" x="571.69" y="530.90" angle="148.13" type="Sport" speed="8.83" pos="23.35" lane="-228371100#0_1" slope="0.00"/>
        <vehicle id="6" x="458.02" y="328.24" angle="221.62" type="Truck" speed="1.35" pos="4.45" lane="38569906#6_0" slope="0.00"/>
    </timestep>
    <timestep time="20.00">
        <vehicle id="0" x="452.47" y="665.68" angle="54.05" type="Truck" speed="7.88" pos="5.35" lane=":cluster_2370780687_2370780689_368243974_6_0" slope="0.00"/>
        <vehicle id="1" x="491.09" y="593.47" angle="336.26" type="Truck" speed="1.92" pos="40.29" lane="-229073333_0" slope="0.00"/>
        <vehicle id="2" x="506.98" y="383.52" angle="222.08" type="Sport" speed="9.48" pos="52.42" lane="38569906#4_0" slope="0.00"/>
        <vehicle id="3" x="487.40" y="478.64" angle="223.63" type="Car" speed="6.28" pos="7.01" lane="-47370578#2_0" slope="0.00"/>
        <vehicle id="4" x="316.24" y="659.85" angle="246.67" type="Car" speed="12.90" pos="14.46" lane="47360669#2_0" slope="0.00"/>
        <vehicle id="5" x="577.58" y="521.42" angle="148.13" type="Sport" speed="11.16" pos="34.51" lane="-228371100#0_1" slope="0.00"/>
        <vehicle id="6" x="456.36" y="326.37" angle="221.62" type="Truck" speed="2.51" pos="6.96" lane="38569906#6_0" slope="0.00"/>
    </timestep>
    <timestep time="21.00">
        <vehicle id="0" x="460.62" y="665.18" angle="113.40" type="Truck" speed="8.66" pos="14.01" lane=":cluster_2370780687_2370780689_368243974_6_0" slope="0.00"/>
        <vehicle id="1" x="490.18" y="595.53" angle="336.26" type="Truck" speed="2.25" pos="42.54" lane="-229073333_0" slope="0.00"/>
        <vehicle id="2" x="501.13" y="377.00" angle="221.75" type="Sport" speed="8.76" pos="5.62" lane=":603087557_1_0" slope="0.00"/>
        <vehicle id="3" x="481.93" y="472.90" angle="223.63" type="Car" speed="7.93" pos="14.95" lane="-47370578#2_0" slope="0.00"/>
        <vehicle id="4" x="304.45" y="654.76" angle="246.64" type="Car" speed="12.84" pos="10.51" lane=":2370547825_0_0" slope="0.00"/>
        <vehicle id="5" x="583.33" y="512.18" angle="148.13" type="Sport" speed="10.89" pos="45.40" lane="-228371100#0_1" slope="0.00"/>
        <vehicle id="6" x="454.20" y="323.94" angle="221.62" type="Truck" speed="3.25" pos="10.21" lane="38569906#6_0" slope="0.00"/>
        <vehicle id="7" x="500.71" y="529.45" angle="205.64" type="Sport" speed="0.00" pos="1.10" lane="47370606#2_0" slope="0.00"/>
    </timestep>
    <timestep time="22.00">
        <vehicle id="0" x="469.80" y="661.90" angle="131.20" type="Truck" speed="9.10" pos="6.60" lane="-228371100#3_1" slope="0.00"/>
        <vehicle id="1" x="488.48" y="597.21" angle="318.99" type="Truck" speed="2.39" pos="44.94" lane="-229073333_0" slope="0.00"/>
        <vehicle id="2" x="495.96" y="371.21" angle="221.75" type="Sport" speed="7.76" pos="13.38" lane=":603087557_1_0" slope="0.00"/>
        <vehicle id="3" x="474.52" y="465.13" angle="223.63" type="Car" speed="10.74" pos="25.68" lane="-47370578#2_0" slope="0.00"/>
        <vehicle id="4" x="295.67" y="650.97" angle="246.64" type="Car" speed="9.57" pos="5.68" lane="47360669#3_0" slope="0.00"/>
        <vehicle id="5" x="588.76" y="503.45" angle="148.13" type="Sport" speed="10.29" pos="55.69" lane="-228371100#0_1" slope="0.00"/>
        <vehicle id="6" x="451.19" y="320.55" angle="221.62" type="Truck" speed="4.53" pos="14.74" lane="38569906#6_0" slope="0.00"/>
        <vehicle id="7" x="499.86" y="527.66" angle="205.64" type="Sport" speed="1.98" pos="3.08" lane="47370606#2_0" slope="0.00"/>
    </timestep>
    <timestep time="23.00">
        <vehicle id="0" x="477.56" y="655.11" angle="131.20" type="Truck" speed="10.31" pos="16.90" lane="-228371100#3_1" slope="0.00"/>
        <vehicle id="1" x="486.72" y="598.93" angle="314.43" type="Truck" speed="2.47" pos="47.40" lane="-229073333_0" slope="0.00"/>
        <vehicle id="2" x="490.74" y="365.30" angle="221.39" type="Sport" speed="7.88" pos="6.80" lane="38569906#5_0" slope="0.00"/>
        <vehicle id="3" x="465.52" y="455.68" angle="223.63" type="Car" speed="13.05" pos="38.73" lane="-47370578#2_0" slope="0.00"/>
        <vehicle id="4" x="289.46" y="648.29" angle="246.64" type="Car" speed="6.76" pos="12.44" lane="47360669#3_0" slope="0.00"/>
        <vehicle id="5" x="594.21" y="494.67" angle="148.13" type="Sport" speed="10.34" pos="66.02" lane="-228371100#0_1" slope="0.00"/>
        <vehicle id="6" x="447.54" y="316.44" angle="221.62" type="Truck" speed="5.50" pos="20.24" lane="38569906#6_0" slope="0.00"/>
        <vehicle id="7" x="497.91" y="523.60" angle="205.64" type="Sport" speed="4.51" pos="7.59" lane="47370606#2_0" slope="0.00"/>
    </timestep>
    <timestep time="24.00">
        <vehicle id="0" x="486.07" y="647.66" angle="131.20" type="Truck" speed="11.31" pos="28.21" lane="-228371100#3_1" slope="0.00"/>
        <vehicle id="1" x="485.13" y="600.49" angle="314.43" type="Truck" speed="2.23" pos="49.63" lane="-229073333_0" slope="0.00"/>
        <vehicle id="2" x="485.59" y="359.46" angle="221.39" type="Sport" speed="7.79" pos="14.59" lane="38569906#5_0" slope="0.00"/>
        <vehicle id="3" x="455.47" y="444.95" angle="222.13" type="Car" speed="14.70" pos="53.43" lane="-47370578#2_0" slope="0.00"/>
        <vehicle id="4" x="280.96" y="643.70" angle="238.14" type="Car" speed="9.67" pos="7.71" lane=":603046503_1_0" slope="0.00"/>
        <vehicle id="5" x="600.09" y="485.21" angle="148.13" type="Sport" speed="11.14" pos="77.17" lane="-228371100#0_1" slope="0.00"/>
        <vehicle id="6" x="443.21" y="311.57" angle="221.62" type="Truck" speed="6.52" pos="26.76" lane="38569906#6_0" slope="0.00"/>
        <vehicle id="7" x="495.71" y="517.82" angle="199.51" type="Sport" speed="6.18" pos="13.77" lane="47370606#2_0" slope="0.00"/>
        <vehicle id="8" x="383.39" y="245.83" angle="223.85" type="Car" speed="0.00" pos="1.10" lane="38569906#9_0" slope="0.00"/>
    </timestep>
    <timestep time="25.00">
        <vehicle id="0" x="494.24" y="641.30" angle="124.53" type="Truck" speed="10.38" pos="5.11" lane=":cluster_2370780675_603095583_603103024_15_0" slope="0.00"/>
        <vehicle id="1" x="483.31" y="602.27" angle="314.43" type="Truck" speed="2.54" pos="52.17" lane="-229073333_0" slope="0.00"/>
        <vehicle id="2" x="480.23" y="353.37" angle="221.39" type="Sport" speed="8.11" pos="22.70" lane="38569906#5_0" slope="0.00"/>
        <vehicle id="3" x="446.09" y="434.58" angle="222.13" type="Car" speed="13.99" pos="67.42" lane="-47370578#2_0" slope="0.00"/>
        <vehicle id="4" x="269.93" y="638.27" angle="247.27" type="Car" speed="12.32" pos="5.51" lane="47360672_0" slope="0.00"/>
        <vehicle id="5" x="603.59" y="479.58" angle="148.13" type="Sport" speed="6.63" pos="83.80" lane="-228371100#0_1" slope="0.00"/>
        <vehicle id="6" x="438.39" y="306.14" angle="221.62" type="Truck" speed="7.25" pos="34.01" lane="38569906#6_0" slope="0.00"/>
        <vehicle id="7" x="494.19" y="513.54" angle="199.51" type="Sport" speed="4.54" pos="18.31" lane="47370606#2_0" slope="0.00"/>
        <vehicle id="8" x="381.74" y="244.11" angle="223.85" type="Car" speed="2.38" pos="3.48" lane="38569906#9_0" slope="0.00"/>
    </timestep>
    <timestep time="26.00">
        <vehicle id="0" x="499.46" y="638.54" angle="115.17" type="Truck" speed="5.93" pos="11.03" lane=":cluster_2370780675_603095583_603103024_15_0" slope="0.00"/>
        <vehicle id="1" x="481.66" y="603.89" angle="314.43" type="Truck" speed="2.31" pos="54.48" lane="-229073333_0" slope="0.00"/>
        <vehicle id="2" x="475.33" y="347.81" angle="221.39" type="Sport" speed="7.40" pos="30.10" lane="38569906#5_0" slope="0.00"/>
        <vehicle id="3" x="436.70" y="423.87" angle="220.98" type="Car" speed="14.25" pos="11.08" lane=":603095456_0_0" slope="0.00"/>
        <vehicle id="4" x="257.35" y="633.00" angle="247.27" type="Car" speed="13.65" pos="19.16" lane="47360672_0" slope="0.00"/>
        <vehicle id="5" x="605.61" y="477.48" angle="114.61" type="Sport" speed="3.03" pos="1.10" lane=":2370547808_4_0" slope="0.00"/>
        <vehicle id="6" x="439.24" y="303.38" angle="150.66" type="Truck" speed="3.78" pos="1.03" lane=":446038580_10_0" slope="0.00"/>
        <vehicle id="7" x="493.60" y="510.50" angle="171.64" type="Sport" speed="3.20" pos="0.83" lane=":603095508_3_0" slope="0.00"/>
        <vehicle id="8" x="378.82" y="241.07" angle="223.85" type="Car" speed="4.22" pos="7.69" lane="38569906#9_0" slope="0.00"/>
    </timestep>
    <timestep time="27.00">
        <vehicle id="0" x="505.74" y="636.36" angle="103.77" type="Truck" speed="6.68" pos="4.52" lane=":cluster_2370780675_603095583_603103024_19_0" slope="0.00"/>
        <vehicle id="1" x="480.17" y="605.35" angle="314.43" type="Truck" speed="2.09" pos="56.57" lane="-229073333_0" slope="0.00"/>
        <vehicle id="2" x="468.83" y="340.44" angle="221.39" type="Sport" speed="9.83" pos="39.94" lane="38569906#5_0" slope="0.00"/>
        <vehicle id="3" x="427.05" y="412.33" angle="219.89" type="Car" speed="15.03" pos="14.72" lane="-47370578#1_0" slope="0.00"/>
        <vehicle id="4" x="245.53" y="628.05" angle="247.27" type="Car" speed="12.81" pos="31.97" lane="47360672_0" slope="0.00"/>
        <vehicle id="5" x="607.29" y="478.41" angle="25.10" type="Sport" speed="2.36" pos="1.12" lane=":2370547808_6_0" slope="0.00"/>
        <vehicle id="6" x="441.76" y="305.12" angle="54.14" type="Truck" speed="3.19" pos="1.88" lane="-38569906#6_0" slope="0.00"/>
        <vehicle id="7" x="495.87" y="509.82" angle="60.61" type="Sport" speed="3.16" pos="3.98" lane=":603095508_3_0" slope="0.00"/>
        <vehicle id="8" x="374.41" y="236.49" angle="223.85" type="Car" speed="6.36" pos="14.06" lane="38569906#9_0" slope="0.00"/>
        <vehicle id="9" x="171.74" y="3.27" angle="353.29" type="Truck" speed="0.00" pos="3.10" lane="-47360621_0" slope="0.00"/>
    </timestep>
    <timestep time="28.00">
        <vehicle id="0" x="512.76" y="637.34" angle="65.68" type="Truck" speed="7.53" pos="0.70" lane="47371425#0_0" slope="0.00"/>
        <vehicle id="1" x="478.31" y="607.18" angle="314.43" type="Truck" speed="2.61" pos="59.18" lane="-229073333_0" slope="0.00"/>
        <vehicle id="2" x="460.42" y="330.94" angle="221.61" type="Sport" speed="12.69" pos="0.84" lane="38569906#6_0" slope="0.00"/>
        <vehicle id="3" x="418.02" y="401.53" angle="219.89" type="Car" speed="14.07" pos="28.79" lane="-47370578#1_0" slope="0.00"/>
        <vehicle id="4" x="233.40" y="622.97" angle="247.27" type="Car" speed="13.15" pos="45.13" lane="47360672_0" slope="0.00"/>
        <vehicle id="5" x="606.72" y="480.59" angle="328.14" type="Sport" speed="2.36" pos="1.13" lane="228371100#0_0" slope="0.00"/>
        <vehicle id="6" x="444.67" y="308.39" angle="41.62" type="Truck" speed="4.38" pos="6.26" lane="-38569906#6_0" slope="0.00"/>
        <vehicle id="7" x="496.95" y="511.73" angle="19.49" type="Sport" speed="2.28" pos="1.59" lane="-47370606#2_0" slope="0.00"/>
        <vehicle id="8" x="369.19" y="231.05" angle="223.85" type="Car" speed="7.55" pos="21.60" lane="38569906#9_0" slope="0.00"/>
        <vehicle id="9" x="171.60" y="4.44" angle="353.29" type="Truck" speed="1.18" pos="4.28" lane="-47360621_0" slope="0.00"/>
    </timestep>
    <timestep time="29.00">
        <vehicle id="0" x="518.14" y="644.40" angle="37.31" type="Truck" speed="8.88" pos="9.58" lane="47371425#0_0" slope="0.00"/>
        <vehicle id="1" x="476.46" y="607.72" angle="295.64" type="Truck" speed="2.02" pos="1.46" lane=":cluster_2377100525_2377100526_5_0" slope="0.00"/>
        <vehicle id="2" x="451.17" y="320.52" angle="221.62" type="Sport" speed="13.93" pos="14.78" lane="38569906#6_0" slope="0.00"/>
        <vehicle id="3" x="408.48" y="390.10" angle="219.75" type="Car" speed="14.90" pos="2.68" lane=":603095449_0_0" slope="0.00"/>
        <vehicle id="4" x="224.72" y="618.90" angle="239.98" type="Car" speed="9.61" pos="54.74" lane="47360672_0" slope="0.00"/>
        <vehicle id="5" x="603.91" y="485.12" angle="328.14" type="Sport" speed="5.34" pos="6.47" lane="228371100#0_0" slope="0.00"/>
        <vehicle id="6" x="448.40" y="312.59" angle="41.62" type="Truck" speed="5.62" pos="11.88" lane="-38569906#6_0" slope="0.00"/>
        <vehicle id="7" x="498.50" y="516.10" angle="19.49" type="Sport" speed="4.63" pos="6.22" lane="-47370606#2_0" slope="0.00"/>
        <vehicle id="8" x="366.66" y="228.41" angle="223.85" type="Car" speed="3.65" pos="25.25" lane="38569906#9_0" slope="0.00"/>
        <vehicle id="9" x="171.36" y="6.52" angle="353.29" type="Truck" speed="2.09" pos="6.37" lane="-47360621_0" slope="0.00"/>
    </timestep>
    <timestep time="30.00">
        <vehicle id="0" x="523.52" y="651.47" angle="37.31" type="Truck" speed="8.89" pos="18.46" lane="47371425#0_0" slope="0.00"/>
        <vehicle id="1" x="473.56" y="607.30" angle="262.04" type="Truck" speed="2.96" pos="4.42" lane=":cluster_2377100525_2377100526_5_0" slope="0.00"/>
        <vehicle id="2" x="442.55" y="310.83" angle="221.62" type="Sport" speed="12.97" pos="27.74" lane="38569906#6_0" slope="0.00"/>
        <vehicle id="3" x="399.54" y="379.33" angle="219.60" type="Car" speed="13.98" pos="5.70" lane="-47370578#0_0" slope="0.00"/>
        <vehicle id="4" x="219.58" y="616.65" angle="251.45" type="Car" speed="5.63" pos="3.14" lane=":cluster_2370547816_2370547817_2370547818_7_0" slope="0.00"/>
        <vehicle id="5" x="599.55" y="492.13" angle="328.14" type="Sport" speed="8.25" pos="14.72" lane="228371100#0_0" slope="0.00"/>
        <vehicle id="6" x="452.99" y="317.76" angle="41.62" type="Truck" speed="6.91" pos="18.79" lane="-38569906#6_0" slope="0.00"/>
        <vehicle id="7" x="500.75" y="522.12" angle="25.68" type="Sport" speed="6.44" pos="12.66" lane="-47370606#2_0" slope="0.00"/>
        <vehicle id="8" x="366.22" y="225.52" angle="155.78" type="Car" speed="3.28" pos="0.10" lane=":602750010_10_0" slope="0.00"/>
        <vehicle id="9" x="171.00" y="9.52" angle="353.29" type="Truck" speed="3.03" pos="9.40" lane="-47360621_0" slope="0.00"/>
    </timestep>
    <timestep time="31.00">
        <vehicle id="0" x="524.88" y="654.98" angle="16.93" type="Truck" speed="3.89" pos="3.13" lane=":603103025_4_0" slope="0.00"/>
        <vehicle id="1" x="469.55" y="606.21" angle="254.20" type="Truck" speed="4.16" pos="8.58" lane=":cluster_2377100525_2377100526_5_0" slope="0.00"/>
        <vehicle id="2" x="433.62" y="300.91" angle="222.43" type="Sport" speed="13.34" pos="6.67" lane=":446038580_0_0" slope="0.00"/>
        <vehicle id="3" x="390.11" y="367.93" angle="219.60" type="Car" speed="14.80" pos="20.50" lane="-47370578#0_0" slope="0.00"/>
        <vehicle id="4" x="211.91" y="614.08" angle="251.49" type="Car" speed="8.09" pos="5.01" lane=":cluster_2370547816_2370547817_2370547818_10_0" slope="0.00"/>
        <vehicle id="5" x="593.66" y="501.61" angle="328.14" type="Sport" speed="11.15" pos="25.88" lane="228371100#0_0" slope="0.00"/>
        <vehicle id="6" x="458.20" y="323.62" angle="41.62" type="Truck" speed="7.83" pos="26.62" lane="-38569906#6_0" slope="0.00"/>
        <vehicle id="7" x="504.40" y="529.72" angle="25.61" type="Sport" speed="8.43" pos="0.74" lane=":2377100504_2_0" slope="0.00"/>
        <vehicle id="8" x="368.45" y="225.67" angle="74.06" type="Car" speed="2.34" pos="0.10" lane="-38569906#9_0" slope="0.00"/>
        <vehicle id="9" x="170.54" y="13.45" angle="353.29" type="Truck" speed="3.95" pos="13.35" lane="-47360621_0" slope="0.00"/>
    </timestep>
    <timestep time="32.00">
        <vehicle id="0" x="523.15" y="659.38" angle="330.14" type="Truck" speed="4.83" pos="4.21" lane=":603103025_7_0" slope="0.00"/>
        <vehicle id="1" x="464.76" y="604.56" angle="250.91" type="Truck" speed="5.06" pos="13.64" lane=":cluster_2377100525_2377100526_5_0" slope="0.00"/>
        <vehicle id="10" x="369.14" y="226.39" angle="43.88" type="Sport" speed="0.00" pos="1.10" lane="-38569906#9_0" slope="0.00"/>
        <vehicle id="2" x="426.33" y="293.01" angle="223.20" type="Sport" speed="10.75" pos="3.23" lane="38569906#7_0" slope="0.00"/>
        <vehicle id="3" x="381.45" y="357.46" angle="219.60" type="Car" speed="13.59" pos="34.08" lane="-47370578#0_0" slope="0.00"/>
        <vehicle id="4" x="201.65" y="610.64" angle="251.49" type="Car" speed="10.83" pos="15.84" lane=":cluster_2370547816_2370547817_2370547818_10_0" slope="0.00"/>
        <vehicle id="5" x="587.58" y="511.39" angle="328.14" type="Sport" speed="11.52" pos="37.39" lane="228371100#0_0" slope="0.00"/>
        <vehicle id="6" x="464.02" y="330.18" angle="41.58" type="Truck" speed="8.77" pos="0.97" lane=":603095588_3_0" slope="0.00"/>
        <vehicle id="7" x="509.68" y="538.66" angle="42.04" type="Sport" speed="10.47" pos="6.21" lane="-47370606#1_0" slope="0.00"/>
        <vehicle id="8" x="371.12" y="228.45" angle="43.88" type="Car" speed="3.86" pos="3.95" lane="-38569906#9_0" slope="0.00"/>
        <vehicle id="9" x="169.99" y="18.10" angle="353.29" type="Truck" speed="4.69" pos="18.04" lane="-47360621_0" slope="0.00"/>
    </timestep>
    <timestep time="33.00">
        <vehicle id="0" x="518.96" y="663.55" angle="313.08" type="Truck" speed="5.92" pos="2.17" lane="47371436_0" slope="0.00"/>
        <vehicle id="1" x="459.00" y="602.36" angle="248.38" type="Truck" speed="6.17" pos="19.82" lane=":cluster_2377100525_2377100526_5_0" slope="0.00"/>
        <vehicle id="10" x="369.22" y="226.47" angle="43.88" type="Sport" speed="0.11" pos="1.21" lane="-38569906#9_0" slope="0.00"/>
        <vehicle id="11" x="238.03" y="460.20" angle="286.77" type="Truck" speed="0.00" pos="3.10" lane="228371137#1_0" slope="0.00"/>
        <vehicle id="2" x="421.76" y="288.15" angle="223.20" type="Sport" speed="6.68" pos="9.90" lane="38569906#7_0" slope="0.00"/>
        <vehicle id="3" x="373.87" y="348.30" angle="219.60" type="Car" speed="11.89" pos="45.97" lane="-47370578#0_0" slope="0.00"/>
        <vehicle id="4" x="197.33" y="599.30" angle="196.32" type="Car" speed="13.01" pos="8.87" lane="47360654#0_0" slope="0.00"/>