<?xml version="1.0" encoding="UTF-8"?>

<!-- generated on 08/09/19 00:33:56 by Eclipse SUMO Version 1.2.0
<configuration xmlns:xsi="http://www.w3.org/2001/XMLSchema-instance" xsi:noNamespaceSchemaLocation="http://sumo.dlr.de/xsd/sumoConfiguration.xsd">

    <input>
        <net-file value="mapNetconvert.net.xml"/>
        <route-files value="models/random/routes.rou.xml"/>
    </input>

    <output>
        <fcd-output value="C:\Users\darkm\Documents\NetBeansProjects\C4R\models\random\mapNetconvert.fcd"/>
    </output>

</configuration>
-->

<fcd-export xmlns:xsi="http://www.w3.org/2001/XMLSchema-instance" xsi:noNamespaceSchemaLocation="http://sumo.dlr.de/xsd/fcd_file.xsd">
    <timestep time="0.00"/>
    <timestep time="1.00"/>
    <timestep time="2.00"/>
    <timestep time="3.00">
        <vehicle id="1" x="397.07" y="280.69" angle="3.08" type="Truck" speed="0.00" pos="3.10" lane="454067557#1_0" slope="0.00"/>
    </timestep>
    <timestep time="4.00">
        <vehicle id="1" x="397.11" y="281.46" angle="3.08" type="Truck" speed="0.77" pos="3.87" lane="454067557#1_0" slope="0.00"/>
    </timestep>
    <timestep time="5.00">
        <vehicle id="1" x="397.22" y="283.63" angle="3.08" type="Truck" speed="2.17" pos="6.04" lane="454067557#1_0" slope="0.00"/>
    </timestep>
    <timestep time="6.00">
        <vehicle id="1" x="397.40" y="286.96" angle="3.08" type="Truck" speed="3.34" pos="9.39" lane="454067557#1_0" slope="0.00"/>
        <vehicle id="2" x="223.45" y="47.49" angle="76.28" type="Sport" speed="0.00" pos="1.10" lane="47457295#2_0" slope="0.00"/>
    </timestep>
    <timestep time="7.00">
        <vehicle id="1" x="397.65" y="291.60" angle="3.08" type="Truck" speed="4.65" pos="14.03" lane="454067557#1_0" slope="0.00"/>
        <vehicle id="2" x="225.42" y="47.97" angle="76.28" type="Sport" speed="2.02" pos="3.12" lane="47457295#2_0" slope="0.00"/>
    </timestep>
    <timestep time="8.00">
        <vehicle id="1" x="397.96" y="297.34" angle="3.08" type="Truck" speed="5.74" pos="19.78" lane="454067557#1_0" slope="0.00"/>
        <vehicle id="2" x="228.95" y="50.57" angle="41.14" type="Sport" speed="4.58" pos="2.08" lane=":603947953_1_0" slope="0.00"/>
    </timestep>
    <timestep time="9.00">
        <vehicle id="1" x="398.34" y="304.38" angle="3.08" type="Truck" speed="7.05" pos="26.83" lane="454067557#1_0" slope="0.00"/>
        <vehicle id="2" x="233.50" y="55.78" angle="41.14" type="Sport" speed="6.91" pos="9.00" lane=":603947953_1_0" slope="0.00"/>
        <vehicle id="3" x="471.24" y="158.16" angle="309.11" type="Car" speed="0.00" pos="1.10" lane="47457278#5_0" slope="0.00"/>
    </timestep>
    <timestep time="10.00">
        <vehicle id="1" x="397.99" y="309.41" angle="352.73" type="Truck" speed="5.07" pos="3.58" lane=":603947253_4_0" slope="0.00"/>
        <vehicle id="2" x="239.41" y="62.60" angle="40.84" type="Sport" speed="9.03" pos="7.00" lane="47457295#3_0" slope="0.00"/>
        <vehicle id="3" x="469.12" y="159.88" angle="309.11" type="Car" speed="2.72" pos="3.82" lane="47457278#5_0" slope="0.00"/>
    </timestep>
    <timestep time="11.00">
        <vehicle id="1" x="395.03" y="314.44" angle="322.02" type="Truck" speed="5.89" pos="4.50" lane=":603947253_10_0" slope="0.00"/>
        <vehicle id="2" x="247.01" y="71.39" angle="40.70" type="Sport" speed="11.62" pos="2.02" lane="47457295#4_0" slope="0.00"/>
        <vehicle id="3" x="465.79" y="162.59" angle="309.11" type="Car" speed="4.30" pos="8.12" lane="47457278#5_0" slope="0.00"/>
    </timestep>
    <timestep time="12.00">
        <vehicle id="1" x="389.82" y="318.64" angle="305.91" type="Truck" speed="6.72" pos="1.93" lane="454067557#2_0" slope="0.00"/>
        <vehicle id="2" x="254.10" y="80.69" angle="35.46" type="Sport" speed="11.70" pos="9.95" lane=":cluster_451714999_603947387_603947389_2_0" slope="0.00"/>
        <vehicle id="3" x="461.00" y="166.48" angle="309.11" type="Car" speed="6.17" pos="14.29" lane="47457278#5_0" slope="0.00"/>
        <vehicle id="4" x="566.03" y="308.46" angle="275.30" type="Car" speed="0.00" pos="1.10" lane="47457275_0" slope="0.00"/>
    </timestep>
    <timestep time="13.00">
        <vehicle id="1" x="383.22" y="323.12" angle="304.14" type="Truck" speed="7.98" pos="9.90" lane="454067557#2_0" slope="0.00"/>
        <vehicle id="2" x="261.04" y="90.56" angle="34.90" type="Sport" speed="12.07" pos="22.02" lane=":cluster_451714999_603947387_603947389_2_0" slope="0.00"/>
        <vehicle id="3" x="454.56" y="171.27" angle="286.98" type="Car" speed="8.16" pos="22.45" lane="47457278#5_0" slope="0.00"/>
        <vehicle id="4" x="563.10" y="308.73" angle="275.30" type="Car" speed="2.95" pos="4.05" lane="47457275_0" slope="0.00"/>
    </timestep>
    <timestep time="14.00">
        <vehicle id="1" x="379.46" y="325.67" angle="304.14" type="Truck" speed="4.54" pos="14.44" lane="454067557#2_0" slope="0.00"/>
        <vehicle id="2" x="268.42" y="101.13" angle="35.12" type="Sport" speed="12.89" pos="4.89" lane="447469848#0_0" slope="0.00"/>
        <vehicle id="3" x="444.41" y="170.73" angle="266.96" type="Car" speed="10.16" pos="32.61" lane="47457278#5_0" slope="0.00"/>
        <vehicle id="4" x="557.26" y="309.28" angle="275.30" type="Car" speed="5.86" pos="9.91" lane="47457275_0" slope="0.00"/>
    </timestep>
    <timestep time="15.00">
        <vehicle id="1" x="374.45" y="327.58" angle="286.19" type="Truck" speed="5.45" pos="5.30" lane=":cluster_603947226_603947249_6_0" slope="0.00"/>
        <vehicle id="2" x="275.73" y="111.52" angle="35.12" type="Sport" speed="12.71" pos="17.60" lane="447469848#0_0" slope="0.00"/>
        <vehicle id="3" x="431.65" y="170.06" angle="266.96" type="Car" speed="12.78" pos="45.39" lane="47457278#5_0" slope="0.00"/>
        <vehicle id="4" x="549.14" y="310.03" angle="275.30" type="Car" speed="8.16" pos="18.07" lane="47457275_0" slope="0.00"/>
        <vehicle id="5" x="577.65" y="313.20" angle="15.00" type="Sport" speed="0.00" pos="1.10" lane="47751768#1_0" slope="0.00"/>
    </timestep>
    <timestep time="16.00">
        <vehicle id="1" x="368.71" y="324.73" angle="227.10" type="Truck" speed="6.85" pos="12.15" lane=":cluster_603947226_603947249_6_0" slope="0.00"/>
        <vehicle id="2" x="282.67" y="122.38" angle="32.57" type="Sport" speed="12.87" pos="12.80" lane=":5446766504_4_0" slope="0.00"/>
        <vehicle id="3" x="418.84" y="172.67" angle="282.57" type="Car" speed="13.10" pos="58.49" lane="47457278#5_0" slope="0.00"/>
        <vehicle id="4" x="538.50" y="311.02" angle="275.30" type="Car" speed="10.68" pos="28.75" lane="47457275_0" slope="0.00"/>
        <vehicle id="5" x="578.07" y="314.76" angle="15.00" type="Sport" speed="1.62" pos="2.72" lane="47751768#1_0" slope="0.00"/>
    </timestep>
    <timestep time="17.00">
        <vehicle id="1" x="364.73" y="317.77" angle="207.16" type="Truck" speed="8.03" pos="5.50" lane="-447469848#5_0" slope="0.00"/>
        <vehicle id="2" x="289.08" y="132.87" angle="31.43" type="Sport" speed="12.29" pos="12.15" lane="447469848#1_0" slope="0.00"/>
        <vehicle id="3" x="410.33" y="174.57" angle="282.57" type="Car" speed="8.72" pos="67.21" lane="47457278#5_0" slope="0.00"/>
        <vehicle id="4" x="525.11" y="312.26" angle="275.30" type="Car" speed="13.45" pos="42.20" lane="47457275_0" slope="0.00"/>
        <vehicle id="5" x="579.10" y="318.60" angle="15.00" type="Sport" speed="3.97" pos="6.69" lane="47751768#1_0" slope="0.00"/>
    </timestep>
    <timestep time="18.00">
        <vehicle id="1" x="360.55" y="309.61" angle="207.16" type="Truck" speed="9.17" pos="14.66" lane="-447469848#5_0" slope="0.00"/>
        <vehicle id="2" x="295.13" y="142.76" angle="31.43" type="Sport" speed="11.60" pos="23.75" lane="447469848#1_0" slope="0.00"/>
        <vehicle id="3" x="398.98" y="176.55" angle="273.67" type="Car" speed="11.54" pos="7.07" lane=":603947256_4_0" slope="0.00"/>
        <vehicle id="4" x="512.18" y="313.46" angle="275.30" type="Car" speed="12.98" pos="55.18" lane="47457275_0" slope="0.00"/>
        <vehicle id="5" x="580.62" y="324.27" angle="15.00" type="Sport" speed="5.87" pos="12.56" lane="47751768#1_0" slope="0.00"/>
        <vehicle id="6" x="467.47" y="146.71" angle="56.47" type="Truck" speed="0.00" pos="3.10" lane="47457271#1_0" slope="0.00"/>
    </timestep>
    <timestep time="19.00">
        <vehicle id="1" x="355.76" y="300.29" angle="207.16" type="Truck" speed="10.48" pos="25.14" lane="-447469848#5_0" slope="0.00"/>
        <vehicle id="2" x="299.72" y="149.42" angle="38.06" type="Sport" speed="8.09" pos="3.82" lane=":cluster_451715001_607472169_10_0" slope="0.00"/>
        <vehicle id="3" x="391.36" y="173.98" angle="234.34" type="Car" speed="8.19" pos="1.46" lane=":2370547887_2_0" slope="0.00"/>
        <vehicle id="4" x="503.55" y="314.26" angle="275.30" type="Car" speed="8.67" pos="63.85" lane="47457275_0" slope="0.00"/>
        <vehicle id="5" x="581.97" y="332.48" angle="5.01" type="Sport" speed="8.35" pos="20.90" lane="47751768#1_0" slope="0.00"/>
        <vehicle id="6" x="468.64" y="147.49" angle="56.47" type="Truck" speed="1.40" pos="4.50" lane="47457271#1_0" slope="0.00"/>
    </timestep>
    <timestep time="20.00">
        <vehicle id="1" x="350.53" y="290.09" angle="207.16" type="Truck" speed="11.46" pos="36.60" lane="-447469848#5_0" slope="0.00"/>
        <vehicle id="2" x="304.99" y="155.10" angle="63.55" type="Sport" speed="7.88" pos="11.69" lane=":cluster_451715001_607472169_10_0" slope="0.00"/>
        <vehicle id="3" x="383.96" y="165.84" angle="212.51" type="Car" speed="11.09" pos="6.88" lane=":2370547887_16_0" slope="0.00"/>
        <vehicle id="4" x="501.37" y="312.26" angle="175.75" type="Car" speed="3.68" pos="3.00" lane=":603947320_1_0" slope="0.00"/>
        <vehicle id="5" x="582.93" y="343.53" angle="5.01" type="Sport" speed="11.09" pos="32.00" lane="47751768#1_0" slope="0.00"/>
        <vehicle id="6" x="470.56" y="148.80" angle="55.77" type="Truck" speed="2.33" pos="1.00" lane=":603947294_4_0" slope="0.00"/>
    </timestep>
    <timestep time="21.00">
        <vehicle id="1" x="344.48" y="279.04" angle="208.96" type="Truck" speed="12.60" pos="49.20" lane="-447469848#5_0" slope="0.00"/>
        <vehicle id="2" x="312.77" y="156.23" angle="110.30" type="Sport" speed="8.53" pos="20.22" lane=":cluster_451715001_607472169_10_0" slope="0.00"/>
        <vehicle id="4" x="504.56" y="310.96" angle="95.30" type="Car" speed="3.66" pos="1.99" lane="-47457275_0" slope="0.00"/>
        <vehicle id="5" x="574.73" y="353.13" angle="314.85" type="Sport" speed="13.07" pos="45.07" lane="47751768#1_0" slope="0.00"/>
        <vehicle id="6" x="473.18" y="150.74" angle="53.39" type="Truck" speed="3.26" pos="4.25" lane=":603947294_4_0" slope="0.00"/>
        <vehicle id="7" x="400.83" y="133.24" angle="217.39" type="Sport" speed="0.00" pos="0.20" lane="47457387#0_0" slope="0.00"/>
    </timestep>
    <timestep time="22.00">
        <vehicle id="1" x="337.74" y="266.85" angle="208.96" type="Truck" speed="13.93" pos="63.13" lane="-447469848#5_0" slope="0.00"/>
        <vehicle id="2" x="318.87" y="150.47" angle="143.30" type="Sport" speed="8.69" pos="28.91" lane=":cluster_451715001_607472169_10_0" slope="0.00"/>
        <vehicle id="4" x="510.45" y="310.41" angle="95.30" type="Car" speed="5.92" pos="7.91" lane="-47457275_0" slope="0.00"/>
        <vehicle id="5" x="565.27" y="361.92" angle="307.13" type="Sport" speed="12.93" pos="58.00" lane="47751768#1_0" slope="0.00"/>
        <vehicle id="6" x="476.21" y="153.45" angle="47.51" type="Truck" speed="4.07" pos="8.32" lane=":603947294_4_0" slope="0.00"/>
        <vehicle id="7" x="399.51" y="131.84" angle="229.20" type="Sport" speed="1.94" pos="1.94" lane=":2370547882_0_0" slope="0.00"/>
    </timestep>
    <timestep time="23.00">
        <vehicle id="1" x="331.42" y="253.66" angle="198.70" type="Truck" speed="14.67" pos="9.51" lane=":603947241_0_0" slope="0.00"/>
        <vehicle id="2" x="323.14" y="143.39" angle="151.87" type="Sport" speed="8.29" pos="5.41" lane="47751835_0" slope="0.00"/>
        <vehicle id="4" x="519.14" y="309.60" angle="95.30" type="Car" speed="8.72" pos="16.63" lane="-47457275_0" slope="0.00"/>
        <vehicle id="5" x="556.79" y="368.34" angle="307.13" type="Sport" speed="10.64" pos="68.64" lane="47751768#1_0" slope="0.00"/>
        <vehicle id="6" x="479.80" y="157.57" angle="39.03" type="Truck" speed="5.46" pos="13.78" lane=":603947294_4_0" slope="0.00"/>
        <vehicle id="7" x="396.28" y="130.42" angle="244.44" type="Sport" speed="3.53" pos="1.13" lane="47457387#1_0" slope="0.00"/>
    </timestep>
    <timestep time="24.00">
        <vehicle id="1" x="327.04" y="240.00" angle="197.78" type="Truck" speed="14.34" pos="13.99" lane="-447469848#4_0" slope="0.00"/>
        <vehicle id="2" x="328.02" y="134.27" angle="151.87" type="Sport" speed="10.35" pos="15.76" lane="47751835_0" slope="0.00"/>
        <vehicle id="4" x="529.46" y="308.65" angle="95.30" type="Car" speed="10.36" pos="26.99" lane="-47457275_0" slope="0.00"/>
        <vehicle id="5" x="551.56" y="370.40" angle="283.66" type="Sport" speed="5.72" pos="74.36" lane="47751768#1_0" slope="0.00"/>
        <vehicle id="6" x="483.83" y="162.98" angle="36.61" type="Truck" speed="6.75" pos="6.48" lane="47457271#2_0" slope="0.00"/>
        <vehicle id="7" x="390.77" y="129.80" angle="264.01" type="Sport" speed="5.55" pos="6.68" lane="47457387#1_0" slope="0.00"/>
        <vehicle id="8" x="553.32" y="233.66" angle="338.32" type="Car" speed="0.00" pos="1.10" lane="47751768#0_0" slope="0.00"/>
    </timestep>
    <timestep time="25.00">
        <vehicle id="1" x="322.56" y="226.03" angle="197.78" type="Truck" speed="14.67" pos="28.65" lane="-447469848#4_0" slope="0.00"/>
        <vehicle id="2" x="330.54" y="129.56" angle="151.87" type="Sport" speed="5.35" pos="21.10" lane="47751835_0" slope="0.00"/>
        <vehicle id="4" x="541.41" y="307.54" angle="95.30" type="Car" speed="12.00" pos="38.99" lane="-47457275_0" slope="0.00"/>
        <vehicle id="5" x="548.69" y="369.39" angle="218.62" type="Sport" speed="3.37" pos="2.39" lane=":cluster_603947270_603947272_4_0" slope="0.00"/>
        <vehicle id="6" x="488.50" y="169.26" angle="36.61" type="Truck" speed="7.82" pos="14.30" lane="47457271#2_0" slope="0.00"/>
        <vehicle id="7" x="383.06" y="128.99" angle="264.01" type="Sport" speed="7.75" pos="14.43" lane="47457387#1_0" slope="0.00"/>
        <vehicle id="8" x="552.48" y="235.79" angle="338.32" type="Car" speed="2.29" pos="3.39" lane="47751768#0_0" slope="0.00"/>
    </timestep>
    <timestep time="26.00">
        <vehicle id="1" x="318.25" y="212.37" angle="196.59" type="Truck" speed="14.33" pos="2.70" lane=":603947228_1_0" slope="0.00"/>
        <vehicle id="2" x="330.90" y="124.69" angle="207.98" type="Sport" speed="5.23" pos="5.07" lane=":607472207_2_0" slope="0.00"/>
        <vehicle id="4" x="553.56" y="306.41" angle="95.30" type="Car" speed="12.21" pos="51.20" lane="-47457275_0" slope="0.00"/>
        <vehicle id="5" x="550.65" y="367.33" angle="109.90" type="Sport" speed="3.09" pos="0.81" lane="-47751768#1_0" slope="0.00"/>
        <vehicle id="6" x="493.87" y="176.49" angle="36.61" type="Truck" speed="9.01" pos="23.31" lane="47457271#2_0" slope="0.00"/>
        <vehicle id="7" x="372.96" y="127.93" angle="264.01" type="Sport" speed="10.16" pos="24.60" lane="47457387#1_0" slope="0.00"/>
        <vehicle id="8" x="551.35" y="239.64" angle="345.71" type="Car" speed="4.02" pos="7.41" lane="47751768#0_0" slope="0.00"/>
    </timestep>
    <timestep time="27.00">
        <vehicle id="1" x="314.28" y="198.43" angle="195.08" type="Truck" speed="14.50" pos="6.10" lane="-447469848#3_0" slope="0.00"/>
        <vehicle id="2" x="327.16" y="123.09" angle="256.75" type="Sport" speed="4.19" pos="0.14" lane="47457387#2_0" slope="0.00"/>
        <vehicle id="4" x="562.49" y="305.58" angle="95.30" type="Car" speed="8.96" pos="60.16" lane="-47457275_0" slope="0.00"/>
        <vehicle id="5" x="555.95" y="364.97" angle="127.13" type="Sport" speed="5.93" pos="6.74" lane="-47751768#1_0" slope="0.00"/>
        <vehicle id="6" x="499.67" y="184.29" angle="36.61" type="Truck" speed="9.73" pos="33.03" lane="47457271#2_0" slope="0.00"/>
        <vehicle id="7" x="361.04" y="126.68" angle="264.01" type="Sport" speed="11.99" pos="36.58" lane="47457387#1_0" slope="0.00"/>
        <vehicle id="8" x="549.78" y="245.78" angle="345.71" type="Car" speed="6.34" pos="13.74" lane="47751768#0_0" slope="0.00"/>
        <vehicle id="9" x="481.82" y="160.27" angle="36.61" type="Truck" speed="0.00" pos="3.10" lane="47457271#2_0" slope="0.00"/>
    </timestep>
    <timestep time="28.00">
        <vehicle id="1" x="310.47" y="184.70" angle="195.74" type="Truck" speed="14.25" pos="8.94" lane=":603947245_0_0" slope="0.00"/>
        <vehicle id="2" x="320.32" y="122.24" angle="261.67" type="Sport" speed="6.89" pos="7.03" lane="47457387#2_0" slope="0.00"/>
        <vehicle id="4" x="566.44" y="305.22" angle="95.30" type="Car" speed="3.96" pos="64.12" lane="-47457275_0" slope="0.00"/>
        <vehicle id="5" x="562.08" y="360.33" angle="127.13" type="Sport" speed="7.69" pos="14.43" lane="-47751768#1_0" slope="0.00"/>
        <vehicle id="6" x="506.05" y="192.88" angle="36.61" type="Truck" speed="10.70" pos="43.73" lane="47457271#2_0" slope="0.00"/>
        <vehicle id="7" x="349.92" y="125.51" angle="264.01" type="Sport" speed="11.18" pos="47.76" lane="47457387#1_0" slope="0.00"/>
        <vehicle id="8" x="550.65" y="253.49" angle="13.75" type="Car" speed="7.95" pos="21.70" lane="47751768#0_0" slope="0.00"/>
        <vehicle id="9" x="482.28" y="160.89" angle="36.61" type="Truck" speed="0.78" pos="3.88" lane="47457271#2_0" slope="0.00"/>
    </timestep>
    <timestep time="29.00">
        <vehicle id="1" x="306.51" y="171.16" angle="196.41" type="Truck" speed="14.11" pos="11.95" lane="-447469848#2_0" slope="0.00"/>
        <vehicle id="2" x="311.85" y="121.01" angle="261.67" type="Sport" speed="8.55" pos="15.58" lane="47457387#2_0" slope="0.00"/>
        <vehicle id="4" x="566.74" y="305.19" angle="95.30" type="Car" speed="0.30" pos="64.43" lane="-47457275_0" slope="0.00"/>
        <vehicle id="5" x="569.62" y="353.70" angle="134.86" type="Sport" speed="10.06" pos="24.48" lane="-47751768#1_0" slope="0.00"/>
        <vehicle id="6" x="513.93" y="200.37" angle="72.03" type="Truck" speed="11.31" pos="55.04" lane="47457271#2_0" slope="0.00"/>
        <vehicle id="7" x="342.63" y="124.75" angle="264.01" type="Sport" speed="7.33" pos="55.09" lane="47457387#1_0" slope="0.00"/>
        <vehicle id="8" x="554.78" y="262.19" angle="51.48" type="Car" speed="10.09" pos="31.79" lane="47751768#0_0" slope="0.00"/>
        <vehicle id="9" x="483.54" y="162.58" angle="36.61" type="Truck" speed="2.10" pos="5.98" lane="47457271#2_0" slope="0.00"/>
    </timestep>
    <timestep time="30.00">
        <vehicle id="1" x="301.42" y="158.15" angle="210.64" type="Truck" speed="14.05" pos="6.54" lane=":cluster_451715001_607472169_1_0" slope="0.00"/>
        <vehicle id="2" x="300.59" y="119.36" angle="261.67" type="Sport" speed="11.38" pos="26.96" lane="47457387#2_0" slope="0.00"/>
        <vehicle id="4" x="566.74" y="305.19" angle="95.30" type="Car" speed="0.00" pos="64.43" lane="-47457275_0" slope="0.00"/>
        <vehicle id="5" x="578.35" y="345.02" angle="134.86" type="Sport" speed="12.32" pos="36.80" lane="-47751768#1_0" slope="0.00"/>
        <vehicle id="6" x="524.35" y="203.75" angle="72.03" type="Truck" speed="10.96" pos="65.99" lane="47457271#2_0" slope="0.00"/>
        <vehicle id="7" x="338.94" y="124.36" angle="263.99" type="Sport" speed="3.71" pos="0.10" lane=":607472207_0_0" slope="0.00"/>
        <vehicle id="8" x="564.04" y="269.66" angle="47.26" type="Car" speed="11.91" pos="43.70" lane="47751768#0_0" slope="0.00"/>
        <vehicle id="9" x="485.51" y="165.24" angle="36.61" type="Truck" speed="3.31" pos="9.29" lane="47457271#2_0" slope="0.00"/>
    </timestep>
    <timestep time="31.00">
        <vehicle id="1" x="293.40" y="146.08" angle="211.41" type="Truck" speed="14.50" pos="3.06" lane="-447469848#1_0" slope="0.00"/>
        <vehicle id="2" x="288.54" y="117.59" angle="261.67" type="Sport" speed="12.18" pos="39.14" lane="47457387#2_0" slope="0.00"/>
        <vehicle id="4" x="566.74" y="305.19" angle="95.30" type="Car" speed="0.00" pos="64.43" lane="-47457275_0" slope="0.00"/>
        <vehicle id="5" x="578.71" y="331.97" angle="184.99" type="Sport" speed="13.67" pos="50.47" lane="-47751768#1_0" slope="0.00"/>
        <vehicle id="6" x="535.06" y="207.22" angle="72.03" type="Truck" speed="11.25" pos="77.25" lane="47457271#2_0" slope="0.00"/>
        <vehicle id="7" x="332.85" y="123.70" angle="263.83" type="Sport" speed="6.12" pos="6.22" lane=":607472207_0_0" slope="0.00"/>
        <vehicle id="8" x="572.29" y="278.29" angle="43.68" type="Car" speed="11.93" pos="55.63" lane="47751768#0_0" slope="0.00"/>
        <vehicle id="9" x="488.10" y="168.72" angle="36.61" type="Truck" speed="4.34" pos="13.63" lane="47457271#2_0" slope="0.00"/>
    </timestep>
    <timestep time="32.00">
        <vehicle id="1" x="285.89" y="133.77" angle="211.41" type="Truck" speed="14.42" pos="17.48" lane="-447469848#1_0" slope="0.00"/>
        <vehicle id="4" x="566.74" y="305.19" angle="95.30" type="Car" speed="0.00" pos="64.43" lane="-47457275_0" slope="0.00"/>
        <vehicle id="5" x="575.91" y="319.04" angle="195.02" type="Sport" speed="13.27" pos="63.74" lane="-47751768#1_0" slope="0.00"/>
        <vehicle id="6" x="543.91" y="211.07" angle="66.39" type="Truck" speed="9.66" pos="9.48" lane=":cluster_603947298_603947305_603947327_5_0" slope="0.00"/>
        <vehicle id="7" x="326.20" y="122.98" angle="263.76" type="Sport" speed="6.69" pos="1.09" lane="47457387#2_0" slope="0.00"/>
        <vehicle id="8" x="574.30" y="289.61" angle="4.87" type="Car" speed="11.82" pos="67.45" lane="47751768#0_0" slope="0.00"/>
        <vehicle id="9" x="491.31" y="173.05" angle="36.61" type="Truck" speed="5.39" pos="19.02" lane="47457271#2_0" slope="0.00"/>
    </timestep>
    <timestep time="33.00">
        <vehicle id="1" x="278.34" y="121.54" angle="212.59" type="Truck" speed="14.38" pos="3.11" lane=":5446766504_0_0" slope="0.00"/>
        <vehicle id="4" x="566.74" y="305.19" angle="95.30" type="Car" speed="0.00" pos="64.43" lane="-47457275_0" slope="0.00"/>
        <vehicle id="5" x="572.67" y="305.51" angle="189.38" type="Sport" speed="13.92" pos="7.63" lane=":603947319_1_0" slope="0.00"/>
        <vehicle id="6" x="551.48" y="216.81" angle="48.92" type="Truck" speed="9.57" pos="19.05" lane=":cluster_603947298_603947305_603947327_5_0" slope="0.00"/>
        <vehicle id="7" x="317.17" y="121.78" angle="261.67" type="Sport" speed="9.11" pos="10.21" lane="47457387#2_0" slope="0.00"/>
        <vehicle id="8" x="575.37" y="301.67" angle="5.71" type="Car" speed="12.11" pos="2.84" lane=":603947319_3_0" slope="0.00"/>
        <vehicle id="9" x="495.22" y="178.30" angle="36.61" type="Truck" speed="6.54" pos="25.56" lane="47457271#2_0" slope="0.00"/>
    </timestep>
    <timestep time="34.00">
        <vehicle id="1" x="270.52" y="109.68" angle="215.12" type="Truck" speed="14.22" pos="4.59" lane="-447469848#0_0" slope="0.00"/>
        <vehicle id="4" x="568.37" y="304.82" angle="103.41" type="Car" speed="1.67" pos="1.57" lane=":603947319_6_0" slope="0.00"/>
        <vehicle id="5" x="571.25" y="291.53" angle="184.86" type="Sport" speed="14.05" pos="7.62" lane="-47751768#0_0" slope="0.00"/>
        <vehicle id="6" x="555.08" y="224.91" angle="17.84" type="Truck" speed="9.05" pos="28.10" lane=":cluster_603947298_603947305_603947327_5_0" slope="0.00"/>
        <vehicle id="7" x="306.52" y="120.22" angle="261.67" type="Sport" speed="10.77" pos="20.98" lane="47457387#2_0" slope="0.00"/>
        <vehicle id="8" x="577.48" y="312.56" angle="14.34" type="Car" speed="11.09" pos="0.43" lane="47751768#1_0" slope="0.00"/>
        <vehicle id="9" x="499.85" y="184.53" angle="36.61" type="Truck" speed="7.77" pos="33.33" lane="47457271#2_0" slope="0.00"/>
    </timestep>
    <timestep time="35.00">
        <vehicle id="1" x="263.20" y="99.27" angle="215.12" type="Truck" speed="12.72" pos="17.31" lane="-447469848#0_0" slope="0.00"/>
        <vehicle id="4" x="570.97" y="303.21" angle="132.23" type="Car" speed="3.14" pos="4.71" lane=":603947319_6_0" slope="0.00"/>
        <vehicle id="5" x="568.42" y="278.87" angle="223.70" type="Sport" speed="13.48" pos="21.10" lane="-47751768#0_0" slope="0.00"/>
        <vehicle id="6" x="553.09" y="234.26" angle="343.21" type="Truck" speed="9.59" pos="1.74" lane="47751768#0_0" slope="0.00"/>
        <vehicle id="7" x="295.79" y="118.65" angle="261.67" type="Sport" speed="10.84" pos="31.82" lane="47457387#2_0" slope="0.00"/>
        <vehicle id="8" x="580.56" y="324.06" angle="15.00" type="Car" speed="11.91" pos="12.34" lane="47751768#1_0" slope="0.00"/>
        <vehicle id="9" x="505.04" y="191.52" angle="36.61" type="Truck" speed="8.70" pos="42.03" lane="47457271#2_0" slope="0.00"/>
    </timestep>
    <timestep time="36.00">
        <vehicle id="1" x="253.92" y="90.69" angle="235.38" type="Truck" speed="12.76" pos="12.39" lane=":cluster_451714999_603947387_603947389_0_0" slope="0.00"/>
        <vehicle id="12" x="391.35" y="263.49" angle="195.32" type="Car" speed="0.00" pos="1.10" lane="-454067557#0_0" slope="0.00"/>
        <vehicle id="4" x="571.88" y="298.86" angle="178.91" type="Car" speed="4.54" pos="0.27" lane="-47751768#0_0" slope="0.00"/>
        <vehicle id="5" x="558.73" y="269.42" angle="231.47" type="Sport" speed="13.55" pos="34.65" lane="-47751768#0_0" slope="0.00"/>
        <vehicle id="6" x="550.06" y="244.68" angle="345.71" type="Truck" speed="10.87" pos="12.61" lane="47751768#0_0" slope="0.00"/>
        <vehicle id="7" x="289.85" y="117.78" angle="261.67" type="Sport" speed="6.00" pos="37.82" lane="47457387#2_0" slope="0.00"/>
        <vehicle id="8" x="582.23" y="335.51" angle="5.01" type="Car" speed="11.60" pos="23.95" lane="47751768#1_0" slope="0.00"/>
        <vehicle id="9" x="510.89" y="199.38" angle="36.77" type="Truck" speed="9.81" pos="51.84" lane="47457271#2_0" slope="0.00"/>
    </timestep>
    <timestep time="37.00">
        <vehicle id="1" x="241.08" y="89.34" angle="275.73" type="Truck" speed="13.12" pos="2.17" lane="-38283578#2_0" slope="0.00"/>
        <vehicle id="12" x="390.83" y="261.58" angle="195.32" type="Car" speed="1.98" pos="3.08" lane="-454067557#0_0" slope="0.00"/>
        <vehicle id="4" x="571.43" y="293.63" angle="184.86" type="Car" speed="5.25" pos="5.52" lane="-47751768#0_0" slope="0.00"/>
        <vehicle id="5" x="548.91" y="259.85" angle="193.76" type="Sport" speed="14.11" pos="48.77" lane="-47751768#0_0" slope="0.00"/>
        <vehicle id="6" x="551.07" y="255.24" angle="13.75" type="Truck" speed="10.89" pos="23.49" lane="47751768#0_0" slope="0.00"/>
        <vehicle id="7" x="284.35" y="117.20" angle="268.45" type="Sport" speed="5.55" pos="1.87" lane=":5446766504_2_0" slope="0.00"/>
        <vehicle id="8" x="581.70" y="346.19" angle="314.85" type="Car" speed="11.28" pos="35.23" lane="47751768#1_0" slope="0.00"/>
        <vehicle id="9" x="521.36" y="202.78" angle="72.03" type="Truck" speed="11.01" pos="62.85" lane="47457271#2_0" slope="0.00"/>
    </timestep>
    <timestep time="38.00">
        <vehicle id="1" x="227.04" y="91.31" angle="277.97" type="Truck" speed="14.18" pos="16.34" lane="-38283578#2_0" slope="0.00"/>
        <vehicle id="12" x="389.56" y="257.26" angle="199.73" type="Car" speed="4.51" pos="7.59" lane="-454067557#0_0" slope="0.00"/>
        <vehicle id="4" x="570.87" y="287.03" angle="184.86" type="Car" speed="6.62" pos="12.14" lane="-47751768#0_0" slope="0.00"/>
        <vehicle id="5" x="546.21" y="246.84" angle="165.71" type="Sport" speed="13.40" pos="62.17" lane="-47751768#0_0" slope="0.00"/>
        <vehicle id="6" x="557.08" y="264.03" angle="51.48" type="Truck" speed="11.24" pos="34.74" lane="47751768#0_0" slope="0.00"/>
        <vehicle id="7" x="281.54" y="119.59" angle="354.54" type="Sport" speed="4.45" pos="6.32" lane=":5446766504_2_0" slope="0.00"/>
        <vehicle id="8" x="573.35" y="354.49" angle="314.85" type="Car" speed="11.78" pos="47.00" lane="47751768#1_0" slope="0.00"/>
        <vehicle id="9" x="532.95" y="206.54" angle="72.03" type="Truck" speed="12.18" pos="75.03" lane="47457271#2_0" slope="0.00"/>
    </timestep>
    <timestep time="39.00">
        <vehicle id="1" x="212.88" y="93.72" angle="280.36" type="Truck" speed="14.36" pos="7.51" lane="-38283578#1_0" slope="0.00"/>
        <vehicle id="12" x="387.26" y="251.56" angle="202.00" type="Car" speed="6.14" pos="13.73" lane="-454067557#0_0" slope="0.00"/>
        <vehicle id="4" x="570.03" y="280.56" angle="202.52" type="Car" speed="6.62" pos="18.76" lane="-47751768#0_0" slope="0.00"/>
        <vehicle id="5" x="548.82" y="236.59" angle="165.71" type="Sport" speed="10.57" pos="72.74" lane="-47751768#0_0" slope="0.00"/>
        <vehicle id="6" x="565.77" y="271.47" angle="43.68" type="Truck" speed="11.46" pos="46.20" lane="47751768#0_0" slope="0.00"/>
        <vehicle id="7" x="284.09" y="124.69" angle="31.43" type="Sport" speed="5.74" pos="2.56" lane="447469848#1_0" slope="0.00"/>
        <vehicle id="8" x="565.09" y="362.06" angle="307.13" type="Car" speed="11.23" pos="58.23" lane="47751768#1_0" slope="0.00"/>
        <vehicle id="9" x="543.23" y="210.78" angle="66.39" type="Truck" speed="11.13" pos="8.73" lane=":cluster_603947298_603947305_603947327_5_0" slope="0.00"/>
    </timestep>